! Job execution by suborca V 9.38 !
Job started from head1.mpi-muelheim.mpg.de, running /hsnfs/software/orca/orca_current_directory/orca_current_20230919/orca on xe30th125.mpi-muelheim.mpg.de in /usr/scratch/llang/mol__362209 (/bin/tcsh)
Job execution start: Tue Sep 19 11:02:12 CEST 2023
Shared library path: /hsnfs/software/openmpi-4.1.0/lib:/hsnfs/software/orca/orca_current_directory/orca_current_20230919:/hsnfs/software/themis/llvm-14.0.1/lib:/hsnfs/software/orca/orca_stable:/usr/users/openmpi-2.0.4/lib:/opt/intel/lib/intel64:/opt/intel/mkl/lib/intel64
SLURM Job ID is: 362209
SLURM_JOB_NODELIST: xe30th125
Maxcore enforced by SLURM: 2048 MB per core
Expanded nodelist (1 nodes):
xe30th125

                                 *****************
                                 * O   R   C   A *
                                 *****************

                                            #,                                       
                                            ###                                      
                                            ####                                     
                                            #####                                    
                                            ######                                   
                                           ########,                                 
                                     ,,################,,,,,                         
                               ,,#################################,,                 
                          ,,##########################################,,             
                       ,#########################################, ''#####,          
                    ,#############################################,,   '####,        
                  ,##################################################,,,,####,       
                ,###########''''           ''''###############################       
              ,#####''   ,,,,##########,,,,          '''####'''          '####       
            ,##' ,,,,###########################,,,                        '##       
           ' ,,###''''                  '''############,,,                           
         ,,##''                                '''############,,,,        ,,,,,,###''
      ,#''                                            '''#######################'''  
     '                                                          ''''####''''         
             ,#######,   #######,   ,#######,      ##                                
            ,#'     '#,  ##    ##  ,#'     '#,    #''#        ,####,   ,####,        
            ##       ##  ##   ,#'  ##            #'  '#       #'       #'  '#        
            ##       ##  #######   ##           ,######,      #####,   #    #        
            '#,     ,#'  ##    ##  '#,     ,#' ,#      #,     #,   #   #,  ,#        
             '#######'   ##     ##  '#######'  #'      '#     '####' # '####'.alpha  



                  #######################################################
                  #                        -***-                        #
                  #          Department of theory and spectroscopy      #
                  #    Directorship and core code : Frank Neese         #
                  #        Max Planck Institute fuer Kohlenforschung    #
                  #                Kaiser Wilhelm Platz 1               #
                  #                 D-45470 Muelheim/Ruhr               #
                  #                      Germany                        #
                  #                                                     #
                  #                  All rights reserved                #
                  #                        -***-                        #
                  #######################################################


                         Program Version 5.0  -  CURRENT   -
                                (GIT: $e5b043c795$)
                ($2023-09-18 20:30:17 +0200 $)

                  !                     WARNING:                         !
                  !         This is a DEVELOPMENT version                !

                         (BUILD: $Di 19. Sep 00:09:20 CEST 2023$)


 With contributions from (in alphabetic order):
   Daniel Aravena         : Magnetic Suceptibility
   Michael Atanasov       : Ab Initio Ligand Field Theory (pilot matlab implementation)
   Alexander A. Auer      : GIAO ZORA, VPT2 properties, NMR spectrum
   Ute Becker             : Parallelization
   Giovanni Bistoni       : ED, misc. LED, open-shell LED, HFLD
   Martin Brehm           : Molecular dynamics
   Dmytro Bykov           : SCF Hessian
   Vijay G. Chilkuri      : MRCI spin determinant printing, contributions to CSF-ICE
   Dipayan Datta          : RHF DLPNO-CCSD density
   Achintya Kumar Dutta   : EOM-CC, STEOM-CC
   Dmitry Ganyushin       : Spin-Orbit,Spin-Spin,Magnetic field MRCI
   Miquel Garcia          : C-PCM and meta-GGA Hessian, CCSD/C-PCM, Gaussian charge scheme
   Yang Guo               : DLPNO-NEVPT2, F12-NEVPT2, CIM, IAO-localization
   Andreas Hansen         : Spin unrestricted coupled pair/coupled cluster methods
   Benjamin Helmich-Paris : MC-RPA, TRAH-(SCF,CASSCF), AVAS, COSX integrals, SCF dyn. polar.
   Lee Huntington         : MR-EOM, pCC
   Robert Izsak           : Overlap fitted RIJCOSX, COSX-SCS-MP3, EOM
   Marcus Kettner         : VPT2
   Christian Kollmar      : KDIIS, OOCD, Brueckner-CCSD(T), CCSD density, CASPT2, CASPT2-K, improved NEVPT2
   Simone Kossmann        : Meta GGA functionals, TD-DFT gradient, OOMP2, MP2 Hessian
   Martin Krupicka        : Initial AUTO-CI
   Lucas Lang             : DCDCAS
   Marvin Lechner         : AUTO-CI (C++ implementation), FIC-MRCC
   Dagmar Lenk            : GEPOL surface, SMD
   Dimitrios Liakos       : Extrapolation schemes; Compound Job, initial MDCI parallelization
   Dimitrios Manganas     : Further ROCIS development; embedding schemes
   Dimitrios Pantazis     : SARC Basis sets
   Anastasios Papadopoulos: AUTO-CI, single reference methods and gradients
   Taras Petrenko         : DFT Hessian,TD-DFT gradient, ASA, ECA, R-Raman, ABS, FL, XAS/XES, NRVS
   Peter Pinski           : DLPNO-MP2, DLPNO-MP2 Gradient
   Christoph Reimann      : Effective Core Potentials
   Marius Retegan         : Local ZFS, SOC
   Christoph Riplinger    : Optimizer, TS searches, QM/MM, DLPNO-CCSD(T), (RO)-DLPNO pert. Triples
   Tobias Risthaus        : Range-separated hybrids, TD-DFT gradient, RPA, STAB
   Michael Roemelt        : Original ROCIS implementation
   Masaaki Saitow         : Open-shell DLPNO-CCSD energy and density
   Barbara Sandhoefer     : DKH picture change effects
   Avijit Sen             : IP-ROCIS
   Kantharuban Sivalingam : CASSCF convergence, NEVPT2, FIC-MRCI
   Bernardo de Souza      : ESD, SOC TD-DFT
   Georgi Stoychev        : AutoAux, RI-MP2 NMR, DLPNO-MP2 response
   Willem Van den Heuvel  : Paramagnetic NMR
   Boris Wezisla          : Elementary symmetry handling
   Frank Wennmohs         : Technical directorship


 We gratefully acknowledge several colleagues who have allowed us to
 interface, adapt or use parts of their codes:
   Stefan Grimme, W. Hujo, H. Kruse, P. Pracht,  : VdW corrections, initial TS optimization,
                  C. Bannwarth, S. Ehlert          DFT functionals, gCP, sTDA/sTD-DF
   Ed Valeev, F. Pavosevic, A. Kumar             : LibInt (2-el integral package), F12 methods
   Garnet Chan, S. Sharma, J. Yang, R. Olivares  : DMRG
   Ulf Ekstrom                                   : XCFun DFT Library
   Mihaly Kallay                                 : mrcc  (arbitrary order and MRCC methods)
   Jiri Pittner, Ondrej Demel                    : Mk-CCSD
   Frank Weinhold                                : gennbo (NPA and NBO analysis)
   Christopher J. Cramer and Donald G. Truhlar   : smd solvation model
   Lars Goerigk                                  : TD-DFT with DH, B97 family of functionals
   V. Asgeirsson, H. Jonsson                     : NEB implementation
   FAccTs GmbH                                   : IRC, NEB, NEB-TS, DLPNO-Multilevel, CI-OPT
                                                   MM, QMMM, 2- and 3-layer-ONIOM, Crystal-QMMM,
                                                   LR-CPCM, SF, NACMEs, symmetry and pop. for TD-DFT,
                                                   nearIR, NL-DFT gradient (VV10), updates on ESD,
                                                   ML-optimized integration grids
   S Lehtola, MJT Oliveira, MAL Marques          : LibXC Library
   Liviu Ungur et al                             : ANISO software


 Your calculation uses the libint2 library for the computation of 2-el integrals
 For citations please refer to: http://libint.valeyev.net

 Your ORCA version has been built with support for libXC version: 5.2.2
 For citations please refer to: https://tddft.org/programs/libxc/

 This ORCA versions uses:
   CBLAS   interface :  Fast vector & matrix operations
   LAPACKE interface :  Fast linear algebra routines
   SCALAPACK package :  Parallel linear algebra routines
   Shared memory     :  Shared parallel matrices


================================================================================

----- Orbital basis set information -----
Your calculation utilizes the basis: DKH-def2-TZVP
   Exponents from def2-TZVP [F. Weigend and R. Ahlrichs, Phys. Chem. Chem. Phys. 7, 3297 (2005)],
   recontracted for DKH2 by D. A. Pantazis.

----- AuxJ basis set information -----
Your calculation utilizes the AutoAux generation procedure.
  G. L. Stoychev, A. A. Auer, F. Neese, J. Chem. Theory Comput. 13, 554 (2017)

----- AuxC basis set information -----
Your calculation utilizes the AutoAux generation procedure.
  G. L. Stoychev, A. A. Auer, F. Neese, J. Chem. Theory Comput. 13, 554 (2017)

----- AuxJK basis set information -----
Your calculation utilizes the AutoAux generation procedure.
  G. L. Stoychev, A. A. Auer, F. Neese, J. Chem. Theory Comput. 13, 554 (2017)

----- AuxX basis set information -----
Your calculation utilizes the AutoAux generation procedure.
  G. L. Stoychev, A. A. Auer, F. Neese, J. Chem. Theory Comput. 13, 554 (2017)

================================================================================
                                        WARNINGS
                       Please study these warnings very carefully!
================================================================================

================================================================================
                                       INPUT FILE
================================================================================
NAME = mol.inp
|  1> ! DKH2 DKH-def2-TZVP autoaux
|  2> 
|  3> %casscf
|  4>   nel 3
|  5>   norb 5
|  6>   mult 4,2
|  7>   nroots 10,40
|  8>   actorbs dorbs
|  9>   rel
| 10>     dosoc true
| 11>   end
| 12> end
| 13> 
| 14> *xyz -3 4
| 15> Cr    -0.000000   -0.000000   -0.000000
| 16> F      1.942431   -0.000000    0.001004
| 17> F     -1.942431    0.000000   -0.001004
| 18> F     -0.000000    1.939530   -0.000000
| 19> F      0.000000   -1.939530   -0.000000
| 20> F      0.001004    0.000000    1.940401
| 21> F     -0.001004    0.000000   -1.940401
| 22> *
| 23> 
| 24> 
| 25>                          ****END OF INPUT****
================================================================================

                       ****************************
                       * Single Point Calculation *
                       ****************************

---------------------------------
CARTESIAN COORDINATES (ANGSTROEM)
---------------------------------
  Cr    -0.000000   -0.000000   -0.000000
  F      1.942431   -0.000000    0.001004
  F     -1.942431    0.000000   -0.001004
  F     -0.000000    1.939530   -0.000000
  F      0.000000   -1.939530   -0.000000
  F      0.001004    0.000000    1.940401
  F     -0.001004    0.000000   -1.940401

----------------------------
CARTESIAN COORDINATES (A.U.)
----------------------------
  NO LB      ZA    FRAG     MASS         X           Y           Z
   0 Cr   24.0000    0    52.000   -0.000000   -0.000000   -0.000000
   1 F     9.0000    0    18.998    3.670663   -0.000000    0.001897
   2 F     9.0000    0    18.998   -3.670663    0.000000   -0.001897
   3 F     9.0000    0    18.998   -0.000000    3.665181   -0.000000
   4 F     9.0000    0    18.998    0.000000   -3.665181   -0.000000
   5 F     9.0000    0    18.998    0.001897    0.000000    3.666826
   6 F     9.0000    0    18.998   -0.001897    0.000000   -3.666826

--------------------------------
INTERNAL COORDINATES (ANGSTROEM)
--------------------------------
 Cr     0   0   0     0.000000000000     0.00000000     0.00000000
 F      1   0   0     1.942431259473     0.00000000     0.00000000
 F      1   2   0     1.942431259473   180.00000000     0.00000000
 F      1   2   3     1.939530000000    90.00000000     0.00000000
 F      1   2   4     1.939530000000    90.00000000   180.00000000
 F      1   2   4     1.940401259744    89.94073916   270.00000000
 F      1   2   6     1.940401259744    90.05926084   180.00000000

---------------------------
INTERNAL COORDINATES (A.U.)
---------------------------
 Cr     0   0   0     0.000000000000     0.00000000     0.00000000
 F      1   0   0     3.670663114371     0.00000000     0.00000000
 F      1   2   0     3.670663114371   180.00000000     0.00000000
 F      1   2   3     3.665180528524    90.00000000     0.00000000
 F      1   2   4     3.665180528524    90.00000000   180.00000000
 F      1   2   4     3.666826970832    89.94073916   270.00000000
 F      1   2   6     3.666826970832    90.05926084   180.00000000

---------------------
BASIS SET INFORMATION
---------------------
There are 2 groups of distinct atoms

 Group   1 Type Cr  : 17s11p7d1f contracted to 10s6p4d1f pattern {8111111111/611111/4111/1}
 Group   2 Type F   : 11s6p2d1f contracted to 6s3p2d1f pattern {611111/411/11/1}

---------------------------------
AUXILIARY/J BASIS SET INFORMATION
---------------------------------
There are 2 groups of distinct atoms

 Group   1 Type Cr  : 22s18p18d17f13g3h contracted to 22s18p18d17f13g3h pattern {1111111111111111111111/111111111111111111/111111111111111111/11111111111111111/1111111111111/111}
 Group   2 Type F   : 16s13p12d7f3g contracted to 16s13p12d7f3g pattern {1111111111111111/1111111111111/111111111111/1111111/111}

---------------------------------
AUXILIARY/C BASIS SET INFORMATION
---------------------------------
There are 2 groups of distinct atoms

 Group   1 Type Cr  : 22s18p18d17f13g3h contracted to 22s18p18d17f13g3h pattern {1111111111111111111111/111111111111111111/111111111111111111/11111111111111111/1111111111111/111}
 Group   2 Type F   : 16s13p12d7f3g contracted to 16s13p12d7f3g pattern {1111111111111111/1111111111111/111111111111/1111111/111}

----------------------------------
AUXILIARY/JK BASIS SET INFORMATION
----------------------------------
There are 2 groups of distinct atoms

 Group   1 Type Cr  : 22s18p18d17f13g3h contracted to 22s18p18d17f13g3h pattern {1111111111111111111111/111111111111111111/111111111111111111/11111111111111111/1111111111111/111}
 Group   2 Type F   : 16s13p12d7f3g contracted to 16s13p12d7f3g pattern {1111111111111111/1111111111111/111111111111/1111111/111}

---------------------------------
AUXILIARY/X BASIS SET INFORMATION
---------------------------------
There are 2 groups of distinct atoms

 Group   1 Type Cr  : 22s18p18d17f13g3h contracted to 22s18p18d17f13g3h pattern {1111111111111111111111/111111111111111111/111111111111111111/11111111111111111/1111111111111/111}
 Group   2 Type F   : 16s13p12d7f3g contracted to 16s13p12d7f3g pattern {1111111111111111/1111111111111/111111111111/1111111/111}


Checking for AutoStart:
The File: mol.gbw exists
Trying to determine its content:
     ... Fine, the file contains calculation information
     ... Fine, the calculation information was read
     ... Fine, the file contains a basis set
     ... Fine, the basis set was read
     ... Fine, the file contains a geometry
     ... Fine, the geometry was read
     ... Fine, the file contains a set of orbitals
     ... Fine, the orbitals can be read
     => possible old guess file was deleted
     => GBW file was renamed to GES file
     => GES file is set as startup file
     => Guess is set to MORead
     ... now leaving AutoStart

------------------------------------------------------------------------------
                           ORCA GTO INTEGRAL CALCULATION
------------------------------------------------------------------------------
------------------------------------------------------------------------------
                   ___                                                        
                  /   \      - P O W E R E D   B Y -                         
                 /     \                                                     
                 |  |  |   _    _      __       _____    __    __             
                 |  |  |  | |  | |    /  \     |  _  \  |  |  /  |          
                  \  \/   | |  | |   /    \    | | | |  |  | /  /          
                 / \  \   | |__| |  /  /\  \   | |_| |  |  |/  /          
                |  |  |   |  __  | /  /__\  \  |    /   |      \           
                |  |  |   | |  | | |   __   |  |    \   |  |\   \          
                \     /   | |  | | |  |  |  |  | |\  \  |  | \   \       
                 \___/    |_|  |_| |__|  |__|  |_| \__\ |__|  \__/        
                                                                              
                      - O R C A' S   B I G   F R I E N D -                    
                                      &                                       
                       - I N T E G R A L  F E E D E R -                       
                                                                              
 v1 FN, 2020, v2 2021                                                         
------------------------------------------------------------------------------


----------------------
SHARK INTEGRAL PACKAGE
----------------------

Number of atoms                             ...      7
Number of basis functions                   ...    247
Number of shells                            ...     93
Maximum angular momentum                    ...      3
Integral batch strategy                     ... SHARK/LIBINT Hybrid
RI-J (if used) integral strategy            ... SPLIT-RIJ (Revised 2003 algorithm where possible)
Printlevel                                  ...      1
Contraction scheme used                     ... SEGMENTED contraction
Prescreening option                         ... SCHWARTZ
   Thresh                                   ... 1.000e-10
   Tcut                                     ... 1.000e-11
   Tpresel                                  ... 1.000e-11 
Coulomb Range Separation                    ... NOT USED
Exchange Range Separation                   ... NOT USED
Multipole approximations                    ... NOT USED
Finite Nucleus Model                        ... NOT USED
Auxiliary Coulomb fitting basis             ... AVAILABLE
   # of basis functions in Aux-J            ...   1581
   # of shells in Aux-J                     ...    397
   Maximum angular momentum in Aux-J        ...      5
Auxiliary J/K fitting basis                 ... AVAILABLE
   # of basis functions in Aux-JK           ...   1581
   # of shells in Aux-JK                    ...    397
   Maximum angular momentum in Aux-JK       ...      5
Auxiliary Correlation fitting basis         ... AVAILABLE
   # of basis functions in Aux-C            ...   1581
   # of shells in Aux-C                     ...    397
   Maximum angular momentum in Aux-C        ...      5
Auxiliary 'external' fitting basis          ... NOT available

Calculating pre-screening integrals         ... done (  0.1 sec) Dimension = 93
Organizing shell pair data                  ... done (  0.0 sec)
Shell pair information
Total number of shell pairs                 ...      4371
Shell pairs after pre-screening             ...      3510
Total number of primitive shell pairs       ...     12421
Primitive shell pairs kept                  ...      7278
          la=0 lb=0:    727 shell pairs
          la=1 lb=0:    930 shell pairs
          la=1 lb=1:    297 shell pairs
          la=2 lb=0:    580 shell pairs
          la=2 lb=1:    342 shell pairs
          la=2 lb=2:    115 shell pairs
          la=3 lb=0:    226 shell pairs
          la=3 lb=1:    162 shell pairs
          la=3 lb=2:    106 shell pairs
          la=3 lb=3:     25 shell pairs

Calculating one electron integrals          ... done (  0.0 sec)
Calculating RI/J V-Matrix + Cholesky decomp.... done (  0.1 sec)
Calculating RI/JK V-Matrix + Cholesky decomp... done (  0.1 sec)
Calculating RI/C V-Matrix + Cholesky decomp.... done (  0.1 sec)
Calculating Nuclear repulsion               ... done (  0.0 sec) ENN=    573.899322982366 Eh

-------------------
DFT GRID GENERATION
-------------------

General Integration Accuracy     IntAcc      ... 4.388
Radial Grid Type                 RadialGrid  ... OptM3 with GC (2021)
Angular Grid (max. ang.)         AngularGrid ... 4 (Lebedev-302)
Angular grid pruning method      GridPruning ... 4 (adaptive)
Weight generation scheme         WeightScheme... mBecke (2022)
Basis function cutoff            BFCut       ... 1.0000e-10
Integration weight cutoff        WCut        ... 1.0000e-14
Partially contracted basis set               ... off
Rotationally invariant grid construction     ... off
Angular grids for H and He will be reduced by one unit
Core-polarized basis detected: some atoms will have their core
                               angular grid increased.

Total number of grid points                  ...    48014
Total number of batches                      ...      754
Average number of points per batch           ...       63
Average number of grid points per atom       ...     6859
Initializing poperty integral containers    ... done (  0.0 sec)

SHARK setup successfully completed in   1.4 seconds

Maximum memory used throughout the entire STARTUP-calculation: 49.6 MB
------------------------------------------------------------------------------
                          ORCA RELATIVISTIC HAMILTONIAN
------------------------------------------------------------------------------

Relativistic Method            ... DKH
Order of DKH treatment         ...   2
Treatment of potential         ... V(e,N)
Eps parameter for DKH          ...   0.00000000010000
Nucleus model                  ... Point Nucleus
Speed of light used            ... 137.03598950000000


            ************************************************
            *        DOUGLAS-KROLL-HESS HAMILTONIAN        *
            *   Programmed by FN according to literature   *
            *        procedures. Special thanks to         *
            *       B.A. Hess, M. Reiher and A. Wolf       *
            *     University Erlangen-Nuernberg/Bonn       *
            ************************************************

Uncontracting the basis (first version)        ... done
Number of contracted basis functions           ...  247
Number of uncontracted basis functions         ...  368
Initializing the DKH file                      ... done
Calculating the relativistic integrals         ... done
Storing DKH matrices                           ... done
Code used for DKH trafo                        ... ORCA
Computing the DKH transformation               ... done
Storing the transformation variables           ... done
Transforming V and pVp to p**2 space           ... done
First transformation of V and pVp              ... done
Second transformation of Veff                  ... done
Adding kinetic energy                          ... done
Back transformation of Veff to r-space         ... done
Recovering DKH matrices                        ... done
Recontracting the H-matrix (first version)     ... done
Computing the DKH correction to the H-matrix   ... done
Reading the original H-matrix                  ... done
Adding DKH correction to the H-matrix          ... done
Storing the new modified H-matrix              ... done

Maximum memory used throughout the entire REL-calculation: 21.8 MB

------------------------------------------------------------------------------
                         ORCA PROPERTY INTEGRAL CALCULATIONS
------------------------------------------------------------------------------

GBWName                                   ... mol.gbw
Number of atoms                           ...      7
Number of basis functions                 ...    247
Max core memory                           ...   1024 MB

Dipole integrals                          ... YES
Quadrupole integrals                      ...  NO
Linear Momentum integrals                 ...  NO
Angular Momentum integrals                ...  NO
Higher Moments length integrals           ...  NO
Higher Moments velocity integrals         ...  NO
Kinetic energy integrals                  ...  NO
GIAO Right Hand Sides                     ...  NO
SOC integrals                             ...  NO
EPR diamagnetic integrals (GIAO)          ...  NO
EPR gauge integrals                       ...  NO
Field gradient integrals                  ...  NO (   0 nuclei)
Spin-dipole/Fermi contact integrals       ...  NO (   0 nuclei)
Nucleus-orbit integrals                   ...  NO (   0 nuclei)
Geometric perturbations                   ...  NO (   7 nuclei)
Electric origin: (  0.0000,  0.0000,  0.0000) 
Magnetic origin: (  0.0000,  0.0000,  0.0000) 

Calculating integrals                     ... Electric Dipole (Length)     done (  0.0 sec)

Property integrals calculated in   0.0 sec

Maximum memory used throughout the entire PROPINT-calculation: 22.8 MB
-------------------------------------------------------------------------------
                                 ORCA SCF
-------------------------------------------------------------------------------

------------
SCF SETTINGS
------------
Hamiltonian:
 Ab initio Hamiltonian  Method          .... Hartree-Fock(GTOs)

Relativistic Settings:
 Scalar relativistic method             .... Douglas-Kroll-Hess
 Order of DKH procedure    Order        ....    2
 Mode of DKH-treatment                  .... V=V(e,N)
 Speed of light used       Velit        ....       137.035989
 Cutoff-constant           Eps          ....            1e-10 


General Settings:
 Integral files         IntName         .... mol
 Hartree-Fock type      HFTyp           .... CASSCF
 Total Charge           Charge          ....   -3
 Multiplicity           Mult            ....    4
 Number of Electrons    NEL             ....   81
 Basis Dimension        Dim             ....  247
 Nuclear Repulsion      ENuc            ....    573.8993229824 Eh


Diagonalization of the overlap matrix:
Smallest eigenvalue                        ... 6.390e-04
Time for diagonalization                   ...    0.008 sec
Threshold for overlap eigenvalues          ... 1.000e-08
Number of eigenvalues below threshold      ... 0
Time for construction of square roots      ...    0.004 sec
Total time needed                          ...    0.012 sec

---------------------
INITIAL GUESS: MOREAD
---------------------
Guess MOs are being read from file: mol.ges
Input Geometry matches current geometry (good)
Input basis set matches current basis set (good)
MOs were renormalized
Gram-Schmidt orthogonalization of all MOs with pivot on actives
                      ------------------
                      INITIAL GUESS DONE (   0.1 sec)
                      ------------------


 ... the calculation is a CASSCF calculation -I'm leaving here GOOD LUCK!!!

-------------------------------------------------------------------------------
                              ORCA-CASSCF
-------------------------------------------------------------------------------

ActOrbitals=  4
ActOrbitals=  4, DoAILFT=  1
Setting up the integral package     ... done
Building the CAS space              ... done (10 configurations for Mult=4)
Building the CAS space              ... done (30 configurations for Mult=2)

SYSTEM-SPECIFIC SETTINGS:
Number of active electrons          ...    3
Number of active orbitals           ...    5
Total number of electrons           ...   81
Total number of orbitals            ...  247

Determined orbital ranges:
   Internal       0 -   38 (  39 orbitals)
   Active        39 -   43 (   5 orbitals)
   External      44 -  246 ( 203 orbitals)
Number of rotation parameters      ...   9127

CI-STEP:
CI strategy                         ... General CI
Number of multiplicity blocks       ...    2
BLOCK  0 WEIGHT=   0.5000
  Multiplicity                      ...    4
  #(Configurations)                 ...   10
  #(CSFs)                           ...   10
  #(Roots)                          ...   10
    ROOT=0 WEIGHT=    0.050000
    ROOT=1 WEIGHT=    0.050000
    ROOT=2 WEIGHT=    0.050000
    ROOT=3 WEIGHT=    0.050000
    ROOT=4 WEIGHT=    0.050000
    ROOT=5 WEIGHT=    0.050000
    ROOT=6 WEIGHT=    0.050000
    ROOT=7 WEIGHT=    0.050000
    ROOT=8 WEIGHT=    0.050000
    ROOT=9 WEIGHT=    0.050000

BLOCK  1 WEIGHT=   0.5000
  Multiplicity                      ...    2
  #(Configurations)                 ...   30
  #(CSFs)                           ...   40
  #(Roots)                          ...   40
    ROOT=0 WEIGHT=    0.012500
    ROOT=1 WEIGHT=    0.012500
    ROOT=2 WEIGHT=    0.012500
    ROOT=3 WEIGHT=    0.012500
    ROOT=4 WEIGHT=    0.012500
    ROOT=5 WEIGHT=    0.012500
    ROOT=6 WEIGHT=    0.012500
    ROOT=7 WEIGHT=    0.012500
    ROOT=8 WEIGHT=    0.012500
    ROOT=9 WEIGHT=    0.012500
    ROOT=10 WEIGHT=    0.012500
    ROOT=11 WEIGHT=    0.012500
    ROOT=12 WEIGHT=    0.012500
    ROOT=13 WEIGHT=    0.012500
    ROOT=14 WEIGHT=    0.012500
    ROOT=15 WEIGHT=    0.012500
    ROOT=16 WEIGHT=    0.012500
    ROOT=17 WEIGHT=    0.012500
    ROOT=18 WEIGHT=    0.012500
    ROOT=19 WEIGHT=    0.012500
    ROOT=20 WEIGHT=    0.012500
    ROOT=21 WEIGHT=    0.012500
    ROOT=22 WEIGHT=    0.012500
    ROOT=23 WEIGHT=    0.012500
    ROOT=24 WEIGHT=    0.012500
    ROOT=25 WEIGHT=    0.012500
    ROOT=26 WEIGHT=    0.012500
    ROOT=27 WEIGHT=    0.012500
    ROOT=28 WEIGHT=    0.012500
    ROOT=29 WEIGHT=    0.012500
    ROOT=30 WEIGHT=    0.012500
    ROOT=31 WEIGHT=    0.012500
    ROOT=32 WEIGHT=    0.012500
    ROOT=33 WEIGHT=    0.012500
    ROOT=34 WEIGHT=    0.012500
    ROOT=35 WEIGHT=    0.012500
    ROOT=36 WEIGHT=    0.012500
    ROOT=37 WEIGHT=    0.012500
    ROOT=38 WEIGHT=    0.012500
    ROOT=39 WEIGHT=    0.012500

  PrintLevel                        ...    1
  N(GuessMat)                       ...       512
  MaxDim(CI)                        ...        10
  MaxIter(CI)                       ...        64
  Energy Tolerance CI               ...  1.00e-08
  Residual Tolerance CI             ...  1.00e-08
  Shift(CI)                         ...  1.00e-04

INTEGRAL-TRANSFORMATION-STEP:
  Algorithm                         ... EXACT

ORBITAL-IMPROVEMENT-STEP:
  Algorithm                         ... SuperCI(PT)
  Default Parametrization           ... CAYLEY
  Act-Act rotations                 ... depends on algorithm used

  Note: SuperCI(PT) will ignore FreezeIE, FreezeAct and FreezeGrad. In general Default settings are encouraged.
        In conjunction with ShiftUp, ShiftDn or GradScaling the performance of SuperCI(PT) is less optimal.  

  MaxRot                            ... 2.00e-01 
  Max. no of vectors (DIIS)         ... 15
  DThresh (cut-off) metric          ... 1.00e-06
  Switch step at gradient           ...  3.00e-02 
  Switch step at iteration          ...        50   
  Switch step to                    ... SuperCI(PT)    

SCF-SETTINGS:
  Incremental                       ... on
  RIJCOSX approximation             ... off
  RI-JK approximation               ... off
  AO integral handling              ... DIRECT
  Integral Neglect Thresh           ...  1.00e-10
  Primitive cutoff TCut             ...  1.00e-11
  Energy convergence tolerance      ...  1.00e-07
  Orbital gradient convergence      ...  1.00e-03
  Max. number of iterations         ...        75  


PROPERTIES-SETTINGS:
  Spin orbit coupling               ... true

FINAL ORBITALS:
  Active   Orbitals                 ... d-orbitals 
  Internal Orbitals                 ... canonical 
  External Orbitals                 ... canonical 

------------------
CAS-SCF ITERATIONS
------------------


MACRO-ITERATION   1: 
   --- Inactive Energy E0 = -1643.98196802 Eh
CI-ITERATION   0: 
 -1646.343720147   0.000000000001 (    0.00)
 -1646.283424594   0.000000000001
 -1646.283347139   0.000000000001
 -1646.283162371   0.000000000001
 -1646.247025213   0.000000000001
 -1646.246817719   0.000000000002
 -1646.246737829   0.000000000003
 -1646.186224250   0.000000000001
 -1646.186086325   0.000000000001
 -1646.186083163   0.000000000004
   CI-PROBLEM SOLVED
   DENSITIES MADE
CI-ITERATION   0: 
 -1646.255227854   0.000000000002 (    0.00)
 -1646.255206179   0.000000000005
 -1646.250576481   0.000000000003
 -1646.250570551   0.000000000002
 -1646.250553378   0.000000000003
 -1646.219109800   0.000000000002
 -1646.219061226   0.000000000002
 -1646.219054709   0.000000000002
 -1646.208964361   0.000000000003
 -1646.195426663   0.000000000001
 -1646.195385815   0.000000000001
 -1646.195268187   0.000000000001
 -1646.190510871   0.000000000003
 -1646.190472106   0.000000000002
 -1646.190385697   0.000000000004
 -1646.180105824   0.000000000002
 -1646.180057974   0.000000000002
 -1646.163708545   0.000000000003
 -1646.163506337   0.000000000003
 -1646.163419543   0.000000000002
 -1646.134168903   0.000000000002
 -1646.133823471   0.000000000001
 -1646.133664219   0.000000000002
 -1646.132679351   0.000000000003
 -1646.132636977   0.000000000002
 -1646.132545920   0.000000000002
 -1646.111234577   0.000000000002
 -1646.105171936   0.000000000002
 -1646.105001147   0.000000000002
 -1646.104933447   0.000000000002
 -1646.093673593   0.000000000002
 -1646.093555350   0.000000000002
 -1646.076960706   0.000000000003
 -1646.076944625   0.000000000002
 -1646.076905786   0.000000000002
 -1645.991447827   0.000000000001
 -1645.991326006   0.000000000002
 -1645.979305601   0.000000000003
 -1645.979127545   0.000000000002
 -1645.978701349   0.000000000001
   CI-PROBLEM SOLVED
   DENSITIES MADE

                 <<<<<<<<<<<<<<<<<<INITIAL CI STATE CHECK>>>>>>>>>>>>>>>>>>

BLOCK  0 MULT= 4 NROOTS=10 
ROOT   0:  E=   -1646.3437201471 Eh
      1.00000 [     7]: 01101
ROOT   1:  E=   -1646.2834245943 Eh  1.641 eV  13233.3 cm**-1
      0.74719 [     4]: 10101
      0.25281 [     9]: 00111
ROOT   2:  E=   -1646.2833471394 Eh  1.643 eV  13250.3 cm**-1
      0.99757 [     6]: 01110
ROOT   3:  E=   -1646.2831623708 Eh  1.648 eV  13290.9 cm**-1
      0.74942 [     2]: 11001
      0.24818 [     8]: 01011
ROOT   4:  E=   -1646.2470252129 Eh  2.631 eV  21222.1 cm**-1
      0.46936 [     8]: 01011
      0.35456 [     3]: 10110
      0.15513 [     2]: 11001
      0.01327 [     0]: 11100
      0.00767 [     5]: 10011
ROOT   5:  E=   -1646.2468177193 Eh  2.637 eV  21267.6 cm**-1
      0.62110 [     0]: 11100
      0.35793 [     5]: 10011
      0.01004 [     8]: 01011
      0.00757 [     3]: 10110
      0.00333 [     2]: 11001
ROOT   6:  E=   -1646.2467378290 Eh  2.639 eV  21285.2 cm**-1
      0.47236 [     9]: 00111
      0.36710 [     1]: 11010
      0.16053 [     4]: 10101
ROOT   7:  E=   -1646.1862242495 Eh  4.286 eV  34566.4 cm**-1
      0.49765 [     3]: 10110
      0.21207 [     8]: 01011
      0.13956 [     5]: 10011
      0.08035 [     0]: 11100
      0.07038 [     2]: 11001
ROOT   8:  E=   -1646.1860863254 Eh  4.289 eV  34596.6 cm**-1
      0.49483 [     5]: 10011
      0.28526 [     0]: 11100
      0.14023 [     3]: 10110
      0.05974 [     8]: 01011
      0.01994 [     2]: 11001
ROOT   9:  E=   -1646.1860831627 Eh  4.290 eV  34597.3 cm**-1
      0.63289 [     1]: 11010
      0.27482 [     9]: 00111
      0.09228 [     4]: 10101

BLOCK  1 MULT= 2 NROOTS=40 
ROOT   0:  E=   -1646.2552278537 Eh
      0.94544 [    19]: 01101
      0.02005 [    29]: 00012
      0.01930 [     4]: 12000
      0.00937 [    15]: 02010
ROOT   1:  E=   -1646.2552061791 Eh  0.001 eV      4.8 cm**-1
      0.94563 [    19]: 01101
      0.02311 [     8]: 10200
      0.01274 [    29]: 00012
      0.00884 [    23]: 00210
      0.00565 [     4]: 12000
ROOT   2:  E=   -1646.2505764810 Eh  0.127 eV   1020.9 cm**-1
      0.30125 [    16]: 02001
      0.29841 [    24]: 00201
      0.17183 [    14]: 02100
      0.17136 [    27]: 00102
      0.02318 [    18]: 01110
      0.01085 [     7]: 11001
      0.00686 [     5]: 11100
      0.00634 [    12]: 10011
      0.00632 [    21]: 01011
ROOT   3:  E=   -1646.2505705510 Eh  0.127 eV   1022.2 cm**-1
      0.47298 [    22]: 01002
      0.46983 [    17]: 01200
      0.03011 [    10]: 10101
      0.01708 [    26]: 00111
      0.00410 [     6]: 11010
      0.00297 [     0]: 21000
      0.00293 [    20]: 01020
ROOT   4:  E=   -1646.2505533782 Eh  0.127 eV   1025.9 cm**-1
      0.30036 [    14]: 02100
      0.29947 [    27]: 00102
      0.17245 [    16]: 02001
      0.17078 [    24]: 00201
      0.01895 [     7]: 11001
      0.01321 [    18]: 01110
      0.01090 [    21]: 01011
      0.00389 [     5]: 11100
      0.00364 [    12]: 10011
      0.00260 [     9]: 10110
ROOT   5:  E=   -1646.2191097996 Eh  0.983 eV   7927.0 cm**-1
      0.24645 [    27]: 00102
      0.24566 [    14]: 02100
      0.10254 [    24]: 00201
      0.10154 [    16]: 02001
      0.09953 [     7]: 11001
      0.08338 [    21]: 01011
      0.04537 [    18]: 01110
      0.03099 [     5]: 11100
      0.01948 [    25]: 00120
      0.01086 [     3]: 20001
      0.00900 [     1]: 20100
      0.00307 [     9]: 10110
ROOT   6:  E=   -1646.2190612263 Eh  0.984 eV   7937.7 cm**-1
      0.34872 [    17]: 01200
      0.34679 [    22]: 01002
      0.14186 [    10]: 10101
      0.11833 [    26]: 00111
      0.02753 [    20]: 01020
      0.01253 [     0]: 21000
      0.00424 [     6]: 11010
ROOT   7:  E=   -1646.2190547092 Eh  0.984 eV   7939.1 cm**-1
      0.24677 [    24]: 00201
      0.24501 [    16]: 02001
      0.10864 [    18]: 01110
      0.10229 [    27]: 00102
      0.10224 [    14]: 02100
      0.07472 [     5]: 11100
      0.04125 [     7]: 11001
      0.03451 [    21]: 01011
      0.02622 [     3]: 20001
      0.00815 [    25]: 00120
      0.00521 [    28]: 00021
      0.00375 [     1]: 20100
ROOT   8:  E=   -1646.2089643613 Eh  1.259 eV  10153.7 cm**-1
      0.33266 [    13]: 10002
      0.25191 [    23]: 00210
      0.24889 [    15]: 02010
      0.08428 [     8]: 10200
      0.08226 [     4]: 12000
ROOT   9:  E=   -1646.1954266629 Eh  1.627 eV  13124.8 cm**-1
      0.56270 [    10]: 10101
      0.31000 [    26]: 00111
      0.04135 [     6]: 11010
      0.02958 [    22]: 01002
      0.02837 [    17]: 01200
      0.02800 [     0]: 21000
ROOT  10:  E=   -1646.1953858149 Eh  1.628 eV  13133.8 cm**-1
      0.70548 [    18]: 01110
      0.15061 [     5]: 11100
      0.06147 [    28]: 00021
      0.02880 [    16]: 02001
      0.02716 [    24]: 00201
      0.01185 [     7]: 11001
      0.00631 [     3]: 20001
      0.00582 [    21]: 01011
ROOT  11:  E=   -1646.1952681868 Eh  1.632 eV  13159.6 cm**-1
      0.57436 [     7]: 11001
      0.28361 [    21]: 01011
      0.04019 [     9]: 10110
      0.02743 [    14]: 02100
      0.02735 [     1]: 20100
      0.02691 [    27]: 00102
      0.01446 [    18]: 01110
      0.00312 [     5]: 11100
ROOT  12:  E=   -1646.1905108713 Eh  1.761 eV  14203.7 cm**-1
      0.65582 [    10]: 10101
      0.31002 [    26]: 00111
      0.01355 [     6]: 11010
      0.01095 [    17]: 01200
      0.00900 [    22]: 01002
ROOT  13:  E=   -1646.1904721063 Eh  1.762 eV  14212.2 cm**-1
      0.78318 [    18]: 01110
      0.16144 [     5]: 11100
      0.01407 [     7]: 11001
      0.01378 [    12]: 10011
      0.01103 [    24]: 00201
      0.00832 [    16]: 02001
      0.00736 [    21]: 01011
ROOT  14:  E=   -1646.1903856967 Eh  1.764 eV  14231.2 cm**-1
      0.62035 [     7]: 11001
      0.32507 [    21]: 01011
      0.01773 [    18]: 01110
      0.01305 [     9]: 10110
      0.00980 [    27]: 00102
      0.00900 [    14]: 02100
      0.00370 [     5]: 11100
ROOT  15:  E=   -1646.1801058237 Eh  2.044 eV  16487.4 cm**-1
      0.44521 [    15]: 02010
      0.35691 [    13]: 10002
      0.09353 [     8]: 10200
      0.06476 [     4]: 12000
      0.03423 [    29]: 00012
      0.00306 [    23]: 00210
ROOT  16:  E=   -1646.1800579742 Eh  2.045 eV  16497.9 cm**-1
      0.44883 [    23]: 00210
      0.22061 [    13]: 10002
      0.14625 [     4]: 12000
      0.11562 [     8]: 10200
      0.05435 [    29]: 00012
      0.01205 [    15]: 02010
ROOT  17:  E=   -1646.1637085453 Eh  2.490 eV  20086.2 cm**-1
      0.52763 [    21]: 01011
      0.24924 [     7]: 11001
      0.10833 [     9]: 10110
      0.04745 [     1]: 20100
      0.04692 [    25]: 00120
      0.00894 [    27]: 00102
      0.00885 [    14]: 02100
ROOT  18:  E=   -1646.1635063374 Eh  2.496 eV  20130.5 cm**-1
      0.66976 [     5]: 11100
      0.20377 [    12]: 10011
      0.10637 [    18]: 01110
      0.00885 [    24]: 00201
      0.00858 [    16]: 02001
ROOT  19:  E=   -1646.1634195431 Eh  2.498 eV  20149.6 cm**-1
      0.53048 [    26]: 00111
      0.24741 [    10]: 10101
      0.10782 [     6]: 11010
      0.04910 [    20]: 01020
      0.04788 [     0]: 21000
      0.00875 [    17]: 01200
      0.00856 [    22]: 01002
ROOT  20:  E=   -1646.1341689029 Eh  3.294 eV  26569.4 cm**-1
      0.32713 [     9]: 10110
      0.32471 [    25]: 00120
      0.19037 [    21]: 01011
      0.12085 [     7]: 11001
      0.01523 [     1]: 20100
      0.01107 [    14]: 02100
      0.01057 [    27]: 00102
ROOT  21:  E=   -1646.1338234707 Eh  3.304 eV  26645.2 cm**-1
      0.64532 [     3]: 20001
      0.22515 [     5]: 11100
      0.08297 [    18]: 01110
      0.01330 [    28]: 00021
      0.01186 [    16]: 02001
      0.01162 [    12]: 10011
      0.00971 [    24]: 00201
ROOT  22:  E=   -1646.1336642187 Eh  3.308 eV  26680.1 cm**-1
      0.36428 [    20]: 01020
      0.29757 [     6]: 11010
      0.19424 [    26]: 00111
      0.11500 [    10]: 10101
      0.01173 [    22]: 01002
      0.00995 [    17]: 01200
      0.00722 [     0]: 21000
ROOT  23:  E=   -1646.1326793505 Eh  3.335 eV  26896.3 cm**-1
      0.79708 [     6]: 11010
      0.10725 [     0]: 21000
      0.07028 [    20]: 01020
      0.02073 [    10]: 10101
      0.00264 [    17]: 01200
ROOT  24:  E=   -1646.1326369765 Eh  3.336 eV  26905.6 cm**-1
      0.91896 [    12]: 10011
      0.03659 [     9]: 10110
      0.01907 [    18]: 01110
      0.00754 [     3]: 20001
      0.00564 [    25]: 00120
      0.00474 [     1]: 20100
      0.00270 [    24]: 00201
      0.00265 [     5]: 11100
ROOT  25:  E=   -1646.1325459198 Eh  3.338 eV  26925.6 cm**-1
      0.72952 [     9]: 10110
      0.10506 [    25]: 00120
      0.09542 [     1]: 20100
      0.04663 [    12]: 10011
      0.01253 [     7]: 11001
      0.00607 [    21]: 01011
ROOT  26:  E=   -1646.1112345769 Eh  3.918 eV  31602.9 cm**-1
      0.33394 [    29]: 00012
      0.25295 [     4]: 12000
      0.24736 [     8]: 10200
      0.08326 [    23]: 00210
      0.08245 [    15]: 02010
ROOT  27:  E=   -1646.1051719358 Eh  4.083 eV  32933.5 cm**-1
      0.36768 [    21]: 01011
      0.26993 [     9]: 10110
      0.12462 [     7]: 11001
      0.06585 [    27]: 00102
      0.06578 [    14]: 02100
      0.05259 [    25]: 00120
      0.03763 [     1]: 20100
      0.00792 [     5]: 11100
      0.00312 [     3]: 20001
      0.00271 [    28]: 00021
ROOT  28:  E=   -1646.1050011471 Eh  4.088 eV  32971.0 cm**-1
      0.48927 [     5]: 11100
      0.19495 [     3]: 20001
      0.16641 [    28]: 00021
      0.06510 [    24]: 00201
      0.06484 [    16]: 02001
      0.00593 [    21]: 01011
      0.00433 [     9]: 10110
      0.00351 [    18]: 01110
ROOT  29:  E=   -1646.1049334472 Eh  4.090 eV  32985.8 cm**-1
      0.37328 [    26]: 00111
      0.27481 [     6]: 11010
      0.12767 [    10]: 10101
      0.06575 [    17]: 01200
      0.06557 [    22]: 01002
      0.05354 [    20]: 01020
      0.03936 [     0]: 21000
ROOT  30:  E=   -1646.0936735930 Eh  4.396 eV  35457.1 cm**-1
      0.37413 [    11]: 10020
      0.23828 [     2]: 20010
      0.14617 [     8]: 10200
      0.07957 [    29]: 00012
      0.06211 [    23]: 00210
      0.04750 [     4]: 12000
      0.03325 [    19]: 01101
      0.01645 [    13]: 10002
      0.00251 [    15]: 02010
ROOT  31:  E=   -1646.0935553503 Eh  4.399 eV  35483.0 cm**-1
      0.37151 [     2]: 20010
      0.23662 [    11]: 10020
      0.13050 [    29]: 00012
      0.11543 [     4]: 12000
      0.07030 [    15]: 02010
      0.03358 [    19]: 01101
      0.02031 [     8]: 10200
      0.01128 [    23]: 00210
      0.01048 [    13]: 10002
ROOT  32:  E=   -1646.0769607065 Eh  4.851 eV  39125.1 cm**-1
      0.35151 [     6]: 11010
      0.22180 [    20]: 01020
      0.22048 [     0]: 21000
      0.12411 [    26]: 00111
      0.06561 [    10]: 10101
      0.00839 [    17]: 01200
      0.00808 [    22]: 01002
ROOT  33:  E=   -1646.0769446250 Eh  4.851 eV  39128.6 cm**-1
      0.79371 [    12]: 10011
      0.15216 [     5]: 11100
      0.03683 [    18]: 01110
      0.00844 [    24]: 00201
      0.00801 [    16]: 02001
ROOT  34:  E=   -1646.0769057858 Eh  4.852 eV  39137.2 cm**-1
      0.34981 [     9]: 10110
      0.22289 [     1]: 20100
      0.22236 [    25]: 00120
      0.12222 [    21]: 01011
      0.06546 [     7]: 11001
      0.00827 [    27]: 00102
      0.00814 [    14]: 02100
ROOT  35:  E=   -1645.9914478274 Eh  7.178 eV  57893.0 cm**-1
      0.23760 [     2]: 20010
      0.20485 [    29]: 00012
      0.17646 [     4]: 12000
      0.15018 [    11]: 10020
      0.12039 [    15]: 02010
      0.03861 [     8]: 10200
      0.02865 [    23]: 00210
      0.02361 [    13]: 10002
      0.01964 [    19]: 01101
ROOT  36:  E=   -1645.9913260058 Eh  7.181 eV  57919.8 cm**-1
      0.23496 [    11]: 10020
      0.22925 [     8]: 10200
      0.14850 [     2]: 20010
      0.12976 [    29]: 00012
      0.10168 [    23]: 00210
      0.08944 [     4]: 12000
      0.03781 [    13]: 10002
      0.01975 [    19]: 01101
      0.00882 [    15]: 02010
ROOT  37:  E=   -1645.9793056013 Eh  7.508 eV  60557.9 cm**-1
      0.53389 [     0]: 21000
      0.21027 [    20]: 01020
      0.10797 [     6]: 11010
      0.04668 [    22]: 01002
      0.04664 [    17]: 01200
      0.03310 [    10]: 10101
      0.02144 [    26]: 00111
ROOT  38:  E=   -1645.9791275453 Eh  7.513 eV  60597.0 cm**-1
      0.74194 [    28]: 00021
      0.10456 [     3]: 20001
      0.04624 [    16]: 02001
      0.04618 [    24]: 00201
      0.03837 [    18]: 01110
      0.01563 [     5]: 11100
      0.00379 [     1]: 20100
ROOT  39:  E=   -1645.9787013489 Eh  7.525 eV  60690.6 cm**-1
      0.52806 [     1]: 20100
      0.20915 [    25]: 00120
      0.11019 [     9]: 10110
      0.04594 [    14]: 02100
      0.04592 [    27]: 00102
      0.03251 [     7]: 11001
      0.02116 [    21]: 01011
      0.00527 [    28]: 00021

                 <<<<<<<<<<<<<<<<<<INITIAL CI STATE CHECK>>>>>>>>>>>>>>>>>>

   E(CAS)= -1646.195886193 Eh DE=    0.000000e+00
   --- Energy gap subspaces: Ext-Act = -0.050   Act-Int = 0.530
   N(occ)=  0.60000 0.60000 0.60000 0.60000 0.60000
   ||g|| =     7.043607e-04 Max(G)=   -1.129155e-04 Rot=228,1
                     ---- THE CAS-SCF GRADIENT HAS CONVERGED ----
Switching ActOrbitals
                            --- FINALIZING ORBITALS ---
                    ---- DOING ONE FINAL ITERATION FOR PRINTING ----
   --- d-orbitals (depends on the molecular axis frame)
 L-Center:  0 Cr [-0.000, -0.000, -0.000] 
   --- The active space contains 5 d Orbitals : OK
 Setting 39 active MO to AO dz2     (25)
 Setting 40 active MO to AO dxz     (26)
 Setting 41 active MO to AO dyz     (27)
 Setting 42 active MO to AO dx2y2   (28)
 Setting 43 active MO to AO dxy     (29)
   --- Canonicalize Internal Space
   --- Canonicalize External Space

MACRO-ITERATION   2: 
   --- Inactive Energy E0 = -1643.98196802 Eh
   --- All densities will be recomputed
CI-ITERATION   0: 
 -1646.343720147   0.000000000001 (    0.00)
 -1646.283424594   0.000000000001
 -1646.283347139   0.000000000002
 -1646.283162371   0.000000000001
 -1646.247025213   0.000000000001
 -1646.246817719   0.000000000000
 -1646.246737829   0.000000000001
 -1646.186224250   0.000000000001
 -1646.186086325   0.000000000001
 -1646.186083163   0.000000000001
   CI-PROBLEM SOLVED
   DENSITIES MADE
CI-ITERATION   0: 
 -1646.255227854   0.000000000004 (    0.00)
 -1646.255206179   0.000000000002
 -1646.250576481   0.000000000003
 -1646.250570551   0.000000000001
 -1646.250553378   0.000000000002
 -1646.219109800   0.000000000001
 -1646.219061226   0.000000000002
 -1646.219054709   0.000000000001
 -1646.208964361   0.000000000002
 -1646.195426663   0.000000000002
 -1646.195385815   0.000000000001
 -1646.195268187   0.000000000002
 -1646.190510871   0.000000000002
 -1646.190472106   0.000000000002
 -1646.190385697   0.000000000003
 -1646.180105824   0.000000000002
 -1646.180057974   0.000000000002
 -1646.163708545   0.000000000002
 -1646.163506337   0.000000000002
 -1646.163419543   0.000000000003
 -1646.134168903   0.000000000002
 -1646.133823471   0.000000000002
 -1646.133664219   0.000000000002
 -1646.132679351   0.000000000003
 -1646.132636977   0.000000000002
 -1646.132545920   0.000000000002
 -1646.111234577   0.000000000002
 -1646.105171936   0.000000000002
 -1646.105001147   0.000000000002
 -1646.104933447   0.000000000002
 -1646.093673593   0.000000000002
 -1646.093555350   0.000000000003
 -1646.076960706   0.000000000003
 -1646.076944625   0.000000000002
 -1646.076905786   0.000000000001
 -1645.991447827   0.000000000001
 -1645.991326006   0.000000000002
 -1645.979305601   0.000000000005
 -1645.979127545   0.000000000001
 -1645.978701349   0.000000000001
   CI-PROBLEM SOLVED
   DENSITIES MADE
   E(CAS)= -1646.195886193 Eh DE=   -2.273737e-13
   --- Energy gap subspaces: Ext-Act = -0.050   Act-Int = 0.530
   N(occ)=  0.60000 0.60000 0.60000 0.60000 0.60000
   ||g|| =     7.043607e-04 Max(G)=    1.129155e-04 Rot=228,1
--------------
CASSCF RESULTS
--------------

Final CASSCF energy       : -1646.195886193 Eh  -44795.2674 eV

----------------
ORBITAL ENERGIES
----------------

  NO   OCC          E(Eh)            E(eV) 
   0   2.0000    -221.561589     -6028.9973 
   1   2.0000     -26.331565      -716.5183 
   2   2.0000     -25.659435      -698.2287 
   3   2.0000     -25.659434      -698.2287 
   4   2.0000     -25.659347      -698.2263 
   5   2.0000     -25.659346      -698.2263 
   6   2.0000     -25.659144      -698.2208 
   7   2.0000     -25.659143      -698.2208 
   8   2.0000     -21.986840      -598.2923 
   9   2.0000     -21.986828      -598.2920 
  10   2.0000     -21.986824      -598.2919 
  11   2.0000      -3.072099       -83.5961 
  12   2.0000      -1.775521       -48.3144 
  13   2.0000      -1.775502       -48.3139 
  14   2.0000      -1.775453       -48.3125 
  15   2.0000      -0.924003       -25.1434 
  16   2.0000      -0.908757       -24.7285 
  17   2.0000      -0.908470       -24.7207 
  18   2.0000      -0.907346       -24.6901 
  19   2.0000      -0.907222       -24.6868 
  20   2.0000      -0.906928       -24.6788 
  21   2.0000      -0.074191        -2.0188 
  22   2.0000      -0.050184        -1.3656 
  23   2.0000      -0.049722        -1.3530 
  24   2.0000      -0.041705        -1.1349 
  25   2.0000      -0.041456        -1.1281 
  26   2.0000      -0.041353        -1.1253 
  27   2.0000      -0.039446        -1.0734 
  28   2.0000      -0.039439        -1.0732 
  29   2.0000      -0.039346        -1.0707 
  30   2.0000       0.003252         0.0885 
  31   2.0000       0.003386         0.0921 
  32   2.0000       0.003416         0.0929 
  33   2.0000       0.007336         0.1996 
  34   2.0000       0.007359         0.2003 
  35   2.0000       0.007456         0.2029 
  36   2.0000       0.022590         0.6147 
  37   2.0000       0.022664         0.6167 
  38   2.0000       0.022696         0.6176 
  39   0.6000       0.611743        16.6464 
  40   0.6000       0.552483        15.0338 
  41   0.6000       0.552608        15.0372 
  42   0.6000       0.611644        16.6437 
  43   0.6000       0.552521        15.0349 
  44   0.0000       0.562082        15.2950 
  45   0.0000       0.650637        17.7047 
  46   0.0000       0.650713        17.7068 
  47   0.0000       0.650734        17.7074 
  48   0.0000       0.655016        17.8239 
  49   0.0000       0.655185        17.8285 
  50   0.0000       0.976482        26.5714 
  51   0.0000       0.976492        26.5717 
  52   0.0000       0.976820        26.5806 
  53   0.0000       0.979536        26.6545 
  54   0.0000       1.263613        34.3847 
  55   0.0000       1.263709        34.3873 
  56   0.0000       1.263743        34.3882 
  57   0.0000       1.312328        35.7103 
  58   0.0000       1.312462        35.7139 
  59   0.0000       1.312838        35.7241 
  60   0.0000       1.314685        35.7744 
  61   0.0000       1.352915        36.8147 
  62   0.0000       1.353233        36.8233 
  63   0.0000       1.359616        36.9970 
  64   0.0000       1.359666        36.9984 
  65   0.0000       1.359799        37.0020 
  66   0.0000       1.439108        39.1601 
  67   0.0000       1.439326        39.1660 
  68   0.0000       1.439415        39.1685 
  69   0.0000       1.469668        39.9917 
  70   0.0000       1.469872        39.9972 
  71   0.0000       1.469892        39.9978 
  72   0.0000       1.499824        40.8123 
  73   0.0000       1.499847        40.8129 
  74   0.0000       1.499900        40.8143 
  75   0.0000       1.633871        44.4599 
  76   0.0000       1.633901        44.4607 
  77   0.0000       1.887287        51.3557 
  78   0.0000       1.888329        51.3840 
  79   0.0000       1.912249        52.0349 
  80   0.0000       1.913367        52.0654 
  81   0.0000       1.913519        52.0695 
  82   0.0000       1.921327        52.2820 
  83   0.0000       1.994147        54.2635 
  84   0.0000       1.994256        54.2665 
  85   0.0000       1.994546        54.2743 
  86   0.0000       2.580659        70.2233 
  87   0.0000       2.580979        70.2320 
  88   0.0000       2.787510        75.8520 
  89   0.0000       2.797030        76.1110 
  90   0.0000       2.797451        76.1225 
  91   0.0000       2.797592        76.1263 
  92   0.0000       2.834784        77.1384 
  93   0.0000       2.834862        77.1405 
  94   0.0000       2.834889        77.1413 
  95   0.0000       2.865178        77.9654 
  96   0.0000       2.875978        78.2593 
  97   0.0000       2.876178        78.2648 
  98   0.0000       2.882883        78.4472 
  99   0.0000       2.882925        78.4484 
 100   0.0000       2.883013        78.4508 
 101   0.0000       2.886175        78.5368 
 102   0.0000       2.893622        78.7395 
 103   0.0000       2.893648        78.7402 
 104   0.0000       2.893856        78.7458 
 105   0.0000       3.073127        83.6240 
 106   0.0000       3.073258        83.6276 
 107   0.0000       3.073658        83.6385 
 108   0.0000       3.105002        84.4914 
 109   0.0000       3.106748        84.5389 
 110   0.0000       3.107240        84.5523 
 111   0.0000       3.265430        88.8569 
 112   0.0000       3.265674        88.8635 
 113   0.0000       3.266613        88.8891 
 114   0.0000       3.287041        89.4449 
 115   0.0000       3.288374        89.4812 
 116   0.0000       3.346736        91.0693 
 117   0.0000       3.366236        91.5999 
 118   0.0000       3.366710        91.6128 
 119   0.0000       3.367372        91.6309 
 120   0.0000       3.775915       102.7479 
 121   0.0000       3.777548       102.7923 
 122   0.0000       3.817815       103.8880 
 123   0.0000       3.888929       105.8231 
 124   0.0000       3.889093       105.8276 
 125   0.0000       3.889499       105.8386 
 126   0.0000       3.953606       107.5831 
 127   0.0000       3.953919       107.5916 
 128   0.0000       3.954646       107.6114 
 129   0.0000       4.299490       116.9951 
 130   0.0000       4.299555       116.9968 
 131   0.0000       4.299575       116.9974 
 132   0.0000       4.305176       117.1498 
 133   0.0000       4.305351       117.1546 
 134   0.0000       4.305464       117.1576 
 135   0.0000       4.365682       118.7963 
 136   0.0000       4.365892       118.8020 
 137   0.0000       4.365981       118.8044 
 138   0.0000       4.385914       119.3468 
 139   0.0000       4.386006       119.3493 
 140   0.0000       4.386223       119.3552 
 141   0.0000       4.393744       119.5599 
 142   0.0000       4.563180       124.1704 
 143   0.0000       4.566660       124.2651 
 144   0.0000       4.568150       124.3057 
 145   0.0000       4.614736       125.5734 
 146   0.0000       4.616667       125.6259 
 147   0.0000       4.960764       134.9893 
 148   0.0000       4.962377       135.0332 
 149   0.0000       4.992383       135.8497 
 150   0.0000       4.993591       135.8825 
 151   0.0000       4.994045       135.8949 
 152   0.0000       5.074234       138.0769 
 153   0.0000       7.699256       209.5074 
 154   0.0000       7.700292       209.5356 
 155   0.0000       7.700719       209.5472 
 156   0.0000       8.006032       217.8552 
 157   0.0000       8.006217       217.8602 
 158   0.0000       8.006295       217.8624 
 159   0.0000       8.009530       217.9504 
 160   0.0000       8.009665       217.9541 
 161   0.0000       8.009724       217.9557 
 162   0.0000       8.016794       218.1481 
 163   0.0000       8.016977       218.1530 
 164   0.0000       8.017099       218.1564 
 165   0.0000       8.017333       218.1627 
 166   0.0000       8.019153       218.2122 
 167   0.0000       8.019290       218.2160 
 168   0.0000       8.019607       218.2246 
 169   0.0000       8.021561       218.2778 
 170   0.0000       8.021701       218.2816 
 171   0.0000       8.022023       218.2903 
 172   0.0000       8.022031       218.2906 
 173   0.0000       8.022190       218.2949 
 174   0.0000       8.022256       218.2967 
 175   0.0000       8.023384       218.3274 
 176   0.0000       8.030940       218.5330 
 177   0.0000       8.031062       218.5363 
 178   0.0000       8.031125       218.5380 
 179   0.0000       8.031282       218.5423 
 180   0.0000       8.031327       218.5435 
 181   0.0000       8.031426       218.5462 
 182   0.0000       8.031585       218.5505 
 183   0.0000       8.031790       218.5561 
 184   0.0000       8.031799       218.5564 
 185   0.0000       8.033807       218.6110 
 186   0.0000       8.033953       218.6150 
 187   0.0000       8.034006       218.6164 
 188   0.0000       8.041627       218.8238 
 189   0.0000       8.041635       218.8240 
 190   0.0000       8.041672       218.8250 
 191   0.0000       8.053022       219.1339 
 192   0.0000       8.053203       219.1388 
 193   0.0000       8.134250       221.3442 
 194   0.0000       8.134979       221.3640 
 195   0.0000       8.313086       226.2106 
 196   0.0000       8.314304       226.2437 
 197   0.0000       8.314657       226.2533 
 198   0.0000       9.495180       258.3770 
 199   0.0000       9.495204       258.3776 
 200   0.0000       9.495292       258.3800 
 201   0.0000       9.496609       258.4159 
 202   0.0000       9.499109       258.4839 
 203   0.0000       9.499308       258.4893 
 204   0.0000       9.504426       258.6286 
 205   0.0000       9.505373       258.6544 
 206   0.0000       9.505478       258.6572 
 207   0.0000       9.505724       258.6639 
 208   0.0000       9.517635       258.9880 
 209   0.0000       9.517664       258.9888 
 210   0.0000       9.517827       258.9932 
 211   0.0000       9.518258       259.0050 
 212   0.0000       9.518288       259.0058 
 213   0.0000       9.518357       259.0077 
 214   0.0000       9.665859       263.0214 
 215   0.0000       9.666106       263.0281 
 216   0.0000       9.703856       264.0553 
 217   0.0000       9.704410       264.0704 
 218   0.0000       9.704569       264.0747 
 219   0.0000       9.771433       265.8942 
 220   0.0000       9.815781       267.1010 
 221   0.0000       9.816014       267.1073 
 222   0.0000       9.816572       267.1225 
 223   0.0000       9.924767       270.0666 
 224   0.0000       9.926348       270.1097 
 225   0.0000       9.926954       270.1261 
 226   0.0000       9.971301       271.3329 
 227   0.0000       9.972138       271.3557 
 228   0.0000      14.315864       389.5545 
 229   0.0000      20.319564       552.9235 
 230   0.0000      20.320608       552.9519 
 231   0.0000      20.359308       554.0049 
 232   0.0000      20.360580       554.0395 
 233   0.0000      20.361104       554.0538 
 234   0.0000      20.448295       556.4264 
 235   0.0000      49.573632      1348.9671 
 236   0.0000     103.474028      2815.6714 
 237   0.0000     103.475128      2815.7014 
 238   0.0000     103.506210      2816.5472 
 239   0.0000     103.507564      2816.5840 
 240   0.0000     103.508102      2816.5986 
 241   0.0000     103.594848      2818.9591 
 242   0.0000     119.470623      3250.9609 
 243   0.0000     119.475126      3251.0835 
 244   0.0000     119.476632      3251.1244 
 245   0.0000     296.446677      8066.7242 
 246   0.0000    1722.712666     46877.3948 


---------------------------------------------
CAS-SCF STATES FOR BLOCK  0 MULT= 4 NROOTS=10
---------------------------------------------

ROOT   0:  E=   -1646.3437201471 Eh
      1.00000 [     7]: 01101
ROOT   1:  E=   -1646.2834245943 Eh  1.641 eV  13233.3 cm**-1
      0.74719 [     4]: 10101
      0.25281 [     9]: 00111
ROOT   2:  E=   -1646.2833471394 Eh  1.643 eV  13250.3 cm**-1
      0.99757 [     6]: 01110
ROOT   3:  E=   -1646.2831623708 Eh  1.648 eV  13290.9 cm**-1
      0.74942 [     2]: 11001
      0.24818 [     8]: 01011
ROOT   4:  E=   -1646.2470252129 Eh  2.631 eV  21222.1 cm**-1
      0.46936 [     8]: 01011
      0.35456 [     3]: 10110
      0.15513 [     2]: 11001
      0.01327 [     0]: 11100
      0.00767 [     5]: 10011
ROOT   5:  E=   -1646.2468177193 Eh  2.637 eV  21267.6 cm**-1
      0.62110 [     0]: 11100
      0.35793 [     5]: 10011
      0.01004 [     8]: 01011
      0.00757 [     3]: 10110
      0.00333 [     2]: 11001
ROOT   6:  E=   -1646.2467378290 Eh  2.639 eV  21285.2 cm**-1
      0.47236 [     9]: 00111
      0.36710 [     1]: 11010
      0.16053 [     4]: 10101
ROOT   7:  E=   -1646.1862242495 Eh  4.286 eV  34566.4 cm**-1
      0.49765 [     3]: 10110
      0.21207 [     8]: 01011
      0.13956 [     5]: 10011
      0.08035 [     0]: 11100
      0.07038 [     2]: 11001
ROOT   8:  E=   -1646.1860863254 Eh  4.289 eV  34596.6 cm**-1
      0.49483 [     5]: 10011
      0.28526 [     0]: 11100
      0.14023 [     3]: 10110
      0.05974 [     8]: 01011
      0.01994 [     2]: 11001
ROOT   9:  E=   -1646.1860831627 Eh  4.290 eV  34597.3 cm**-1
      0.63289 [     1]: 11010
      0.27482 [     9]: 00111
      0.09228 [     4]: 10101


---------------------------------------------
CAS-SCF STATES FOR BLOCK  1 MULT= 2 NROOTS=40
---------------------------------------------

ROOT   0:  E=   -1646.2552278537 Eh
      0.94544 [    19]: 01101
      0.02005 [    29]: 00012
      0.01930 [     4]: 12000
      0.00937 [    15]: 02010
ROOT   1:  E=   -1646.2552061791 Eh  0.001 eV      4.8 cm**-1
      0.94563 [    19]: 01101
      0.02311 [     8]: 10200
      0.01274 [    29]: 00012
      0.00884 [    23]: 00210
      0.00565 [     4]: 12000
ROOT   2:  E=   -1646.2505764810 Eh  0.127 eV   1020.9 cm**-1
      0.30125 [    16]: 02001
      0.29840 [    24]: 00201
      0.17183 [    14]: 02100
      0.17136 [    27]: 00102
      0.02318 [    18]: 01110
      0.01085 [     7]: 11001
      0.00686 [     5]: 11100
      0.00634 [    12]: 10011
      0.00632 [    21]: 01011
ROOT   3:  E=   -1646.2505705510 Eh  0.127 eV   1022.2 cm**-1
      0.47298 [    22]: 01002
      0.46983 [    17]: 01200
      0.03011 [    10]: 10101
      0.01708 [    26]: 00111
      0.00410 [     6]: 11010
      0.00297 [     0]: 21000
      0.00293 [    20]: 01020
ROOT   4:  E=   -1646.2505533782 Eh  0.127 eV   1025.9 cm**-1
      0.30036 [    14]: 02100
      0.29947 [    27]: 00102
      0.17245 [    16]: 02001
      0.17078 [    24]: 00201
      0.01895 [     7]: 11001
      0.01321 [    18]: 01110
      0.01090 [    21]: 01011
      0.00389 [     5]: 11100
      0.00364 [    12]: 10011
      0.00260 [     9]: 10110
ROOT   5:  E=   -1646.2191097996 Eh  0.983 eV   7927.0 cm**-1
      0.24645 [    27]: 00102
      0.24566 [    14]: 02100
      0.10254 [    24]: 00201
      0.10154 [    16]: 02001
      0.09953 [     7]: 11001
      0.08338 [    21]: 01011
      0.04537 [    18]: 01110
      0.03099 [     5]: 11100
      0.01948 [    25]: 00120
      0.01086 [     3]: 20001
      0.00900 [     1]: 20100
      0.00307 [     9]: 10110
ROOT   6:  E=   -1646.2190612263 Eh  0.984 eV   7937.7 cm**-1
      0.34872 [    17]: 01200
      0.34679 [    22]: 01002
      0.14186 [    10]: 10101
      0.11833 [    26]: 00111
      0.02753 [    20]: 01020
      0.01253 [     0]: 21000
      0.00424 [     6]: 11010
ROOT   7:  E=   -1646.2190547092 Eh  0.984 eV   7939.1 cm**-1
      0.24677 [    24]: 00201
      0.24501 [    16]: 02001
      0.10864 [    18]: 01110
      0.10229 [    27]: 00102
      0.10224 [    14]: 02100
      0.07472 [     5]: 11100
      0.04125 [     7]: 11001
      0.03451 [    21]: 01011
      0.02622 [     3]: 20001
      0.00815 [    25]: 00120
      0.00521 [    28]: 00021
      0.00375 [     1]: 20100
ROOT   8:  E=   -1646.2089643613 Eh  1.259 eV  10153.7 cm**-1
      0.33266 [    13]: 10002
      0.25191 [    23]: 00210
      0.24889 [    15]: 02010
      0.08428 [     8]: 10200
      0.08226 [     4]: 12000
ROOT   9:  E=   -1646.1954266629 Eh  1.627 eV  13124.8 cm**-1
      0.56270 [    10]: 10101
      0.31000 [    26]: 00111
      0.04135 [     6]: 11010
      0.02958 [    22]: 01002
      0.02837 [    17]: 01200
      0.02800 [     0]: 21000
ROOT  10:  E=   -1646.1953858149 Eh  1.628 eV  13133.8 cm**-1
      0.70548 [    18]: 01110
      0.15061 [     5]: 11100
      0.06147 [    28]: 00021
      0.02880 [    16]: 02001
      0.02716 [    24]: 00201
      0.01185 [     7]: 11001
      0.00631 [     3]: 20001
      0.00582 [    21]: 01011
ROOT  11:  E=   -1646.1952681868 Eh  1.632 eV  13159.6 cm**-1
      0.57436 [     7]: 11001
      0.28361 [    21]: 01011
      0.04019 [     9]: 10110
      0.02743 [    14]: 02100
      0.02735 [     1]: 20100
      0.02691 [    27]: 00102
      0.01446 [    18]: 01110
      0.00312 [     5]: 11100
ROOT  12:  E=   -1646.1905108713 Eh  1.761 eV  14203.7 cm**-1
      0.65582 [    10]: 10101
      0.31002 [    26]: 00111
      0.01355 [     6]: 11010
      0.01095 [    17]: 01200
      0.00900 [    22]: 01002
ROOT  13:  E=   -1646.1904721063 Eh  1.762 eV  14212.2 cm**-1
      0.78318 [    18]: 01110
      0.16144 [     5]: 11100
      0.01407 [     7]: 11001
      0.01378 [    12]: 10011
      0.01103 [    24]: 00201
      0.00832 [    16]: 02001
      0.00736 [    21]: 01011
ROOT  14:  E=   -1646.1903856967 Eh  1.764 eV  14231.2 cm**-1
      0.62035 [     7]: 11001
      0.32507 [    21]: 01011
      0.01773 [    18]: 01110
      0.01305 [     9]: 10110
      0.00980 [    27]: 00102
      0.00900 [    14]: 02100
      0.00370 [     5]: 11100
ROOT  15:  E=   -1646.1801058237 Eh  2.044 eV  16487.4 cm**-1
      0.44521 [    15]: 02010
      0.35691 [    13]: 10002
      0.09353 [     8]: 10200
      0.06476 [     4]: 12000
      0.03423 [    29]: 00012
      0.00306 [    23]: 00210
ROOT  16:  E=   -1646.1800579742 Eh  2.045 eV  16497.9 cm**-1
      0.44883 [    23]: 00210
      0.22061 [    13]: 10002
      0.14625 [     4]: 12000
      0.11562 [     8]: 10200
      0.05435 [    29]: 00012
      0.01205 [    15]: 02010
ROOT  17:  E=   -1646.1637085453 Eh  2.490 eV  20086.2 cm**-1
      0.52763 [    21]: 01011
      0.24924 [     7]: 11001
      0.10833 [     9]: 10110
      0.04745 [     1]: 20100
      0.04692 [    25]: 00120
      0.00894 [    27]: 00102
      0.00885 [    14]: 02100
ROOT  18:  E=   -1646.1635063374 Eh  2.496 eV  20130.5 cm**-1
      0.66976 [     5]: 11100
      0.20377 [    12]: 10011
      0.10637 [    18]: 01110
      0.00885 [    24]: 00201
      0.00858 [    16]: 02001
ROOT  19:  E=   -1646.1634195431 Eh  2.498 eV  20149.6 cm**-1
      0.53048 [    26]: 00111
      0.24741 [    10]: 10101
      0.10782 [     6]: 11010
      0.04910 [    20]: 01020
      0.04788 [     0]: 21000
      0.00875 [    17]: 01200
      0.00856 [    22]: 01002
ROOT  20:  E=   -1646.1341689029 Eh  3.294 eV  26569.4 cm**-1
      0.32713 [     9]: 10110
      0.32471 [    25]: 00120
      0.19037 [    21]: 01011
      0.12085 [     7]: 11001
      0.01523 [     1]: 20100
      0.01107 [    14]: 02100
      0.01057 [    27]: 00102
ROOT  21:  E=   -1646.1338234707 Eh  3.304 eV  26645.2 cm**-1
      0.64532 [     3]: 20001
      0.22515 [     5]: 11100
      0.08297 [    18]: 01110
      0.01330 [    28]: 00021
      0.01186 [    16]: 02001
      0.01162 [    12]: 10011
      0.00971 [    24]: 00201
ROOT  22:  E=   -1646.1336642187 Eh  3.308 eV  26680.1 cm**-1
      0.36428 [    20]: 01020
      0.29757 [     6]: 11010
      0.19424 [    26]: 00111
      0.11500 [    10]: 10101
      0.01173 [    22]: 01002
      0.00995 [    17]: 01200
      0.00722 [     0]: 21000
ROOT  23:  E=   -1646.1326793505 Eh  3.335 eV  26896.3 cm**-1
      0.79708 [     6]: 11010
      0.10725 [     0]: 21000
      0.07028 [    20]: 01020
      0.02073 [    10]: 10101
      0.00264 [    17]: 01200
ROOT  24:  E=   -1646.1326369765 Eh  3.336 eV  26905.6 cm**-1
      0.91896 [    12]: 10011
      0.03659 [     9]: 10110
      0.01907 [    18]: 01110
      0.00754 [     3]: 20001
      0.00564 [    25]: 00120
      0.00474 [     1]: 20100
      0.00270 [    24]: 00201
      0.00265 [     5]: 11100
ROOT  25:  E=   -1646.1325459198 Eh  3.338 eV  26925.6 cm**-1
      0.72952 [     9]: 10110
      0.10506 [    25]: 00120
      0.09542 [     1]: 20100
      0.04663 [    12]: 10011
      0.01253 [     7]: 11001
      0.00607 [    21]: 01011
ROOT  26:  E=   -1646.1112345768 Eh  3.918 eV  31602.9 cm**-1
      0.33394 [    29]: 00012
      0.25295 [     4]: 12000
      0.24736 [     8]: 10200
      0.08326 [    23]: 00210
      0.08245 [    15]: 02010
ROOT  27:  E=   -1646.1051719358 Eh  4.083 eV  32933.5 cm**-1
      0.36768 [    21]: 01011
      0.26993 [     9]: 10110
      0.12462 [     7]: 11001
      0.06585 [    27]: 00102
      0.06578 [    14]: 02100
      0.05259 [    25]: 00120
      0.03763 [     1]: 20100
      0.00792 [     5]: 11100
      0.00312 [     3]: 20001
      0.00271 [    28]: 00021
ROOT  28:  E=   -1646.1050011471 Eh  4.088 eV  32971.0 cm**-1
      0.48927 [     5]: 11100
      0.19495 [     3]: 20001
      0.16641 [    28]: 00021
      0.06510 [    24]: 00201
      0.06484 [    16]: 02001
      0.00593 [    21]: 01011
      0.00433 [     9]: 10110
      0.00351 [    18]: 01110
ROOT  29:  E=   -1646.1049334472 Eh  4.090 eV  32985.8 cm**-1
      0.37328 [    26]: 00111
      0.27481 [     6]: 11010
      0.12767 [    10]: 10101
      0.06575 [    17]: 01200
      0.06557 [    22]: 01002
      0.05354 [    20]: 01020
      0.03936 [     0]: 21000
ROOT  30:  E=   -1646.0936735930 Eh  4.396 eV  35457.1 cm**-1
      0.37413 [    11]: 10020
      0.23828 [     2]: 20010
      0.14617 [     8]: 10200
      0.07957 [    29]: 00012
      0.06211 [    23]: 00210
      0.04750 [     4]: 12000
      0.03325 [    19]: 01101
      0.01645 [    13]: 10002
      0.00251 [    15]: 02010
ROOT  31:  E=   -1646.0935553503 Eh  4.399 eV  35483.0 cm**-1
      0.37151 [     2]: 20010
      0.23662 [    11]: 10020
      0.13050 [    29]: 00012
      0.11543 [     4]: 12000
      0.07030 [    15]: 02010
      0.03358 [    19]: 01101
      0.02031 [     8]: 10200
      0.01128 [    23]: 00210
      0.01048 [    13]: 10002
ROOT  32:  E=   -1646.0769607065 Eh  4.851 eV  39125.1 cm**-1
      0.35151 [     6]: 11010
      0.22180 [    20]: 01020
      0.22048 [     0]: 21000
      0.12411 [    26]: 00111
      0.06561 [    10]: 10101
      0.00839 [    17]: 01200
      0.00808 [    22]: 01002
ROOT  33:  E=   -1646.0769446250 Eh  4.851 eV  39128.6 cm**-1
      0.79371 [    12]: 10011
      0.15216 [     5]: 11100
      0.03683 [    18]: 01110
      0.00844 [    24]: 00201
      0.00801 [    16]: 02001
ROOT  34:  E=   -1646.0769057858 Eh  4.852 eV  39137.2 cm**-1
      0.34981 [     9]: 10110
      0.22289 [     1]: 20100
      0.22236 [    25]: 00120
      0.12222 [    21]: 01011
      0.06546 [     7]: 11001
      0.00827 [    27]: 00102
      0.00814 [    14]: 02100
ROOT  35:  E=   -1645.9914478274 Eh  7.178 eV  57893.0 cm**-1
      0.23760 [     2]: 20010
      0.20485 [    29]: 00012
      0.17646 [     4]: 12000
      0.15018 [    11]: 10020
      0.12039 [    15]: 02010
      0.03861 [     8]: 10200
      0.02865 [    23]: 00210
      0.02361 [    13]: 10002
      0.01964 [    19]: 01101
ROOT  36:  E=   -1645.9913260058 Eh  7.181 eV  57919.8 cm**-1
      0.23496 [    11]: 10020
      0.22925 [     8]: 10200
      0.14850 [     2]: 20010
      0.12976 [    29]: 00012
      0.10168 [    23]: 00210
      0.08944 [     4]: 12000
      0.03781 [    13]: 10002
      0.01975 [    19]: 01101
      0.00882 [    15]: 02010
ROOT  37:  E=   -1645.9793056013 Eh  7.508 eV  60557.9 cm**-1
      0.53389 [     0]: 21000
      0.21027 [    20]: 01020
      0.10797 [     6]: 11010
      0.04668 [    22]: 01002
      0.04664 [    17]: 01200
      0.03310 [    10]: 10101
      0.02144 [    26]: 00111
ROOT  38:  E=   -1645.9791275453 Eh  7.513 eV  60597.0 cm**-1
      0.74194 [    28]: 00021
      0.10456 [     3]: 20001
      0.04624 [    16]: 02001
      0.04618 [    24]: 00201
      0.03837 [    18]: 01110
      0.01563 [     5]: 11100
      0.00379 [     1]: 20100
ROOT  39:  E=   -1645.9787013490 Eh  7.525 eV  60690.6 cm**-1
      0.52806 [     1]: 20100
      0.20915 [    25]: 00120
      0.11019 [     9]: 10110
      0.04594 [    14]: 02100
      0.04592 [    27]: 00102
      0.03251 [     7]: 11001
      0.02116 [    21]: 01011
      0.00527 [    28]: 00021


-----------------------------
SA-CASSCF TRANSITION ENERGIES
------------------------------

LOWEST ROOT (ROOT 0 ,MULT 4) =  -1646.343720147 Eh -44799.290 eV

STATE   ROOT MULT  DE/a.u.    DE/eV    DE/cm**-1
   1:    1    4   0.060296     1.641  13233.3
   2:    2    4   0.060373     1.643  13250.3
   3:    3    4   0.060558     1.648  13290.9
   4:    0    2   0.088492     2.408  19421.8
   5:    1    2   0.088514     2.409  19426.6
   6:    2    2   0.093144     2.535  20442.7
   7:    3    2   0.093150     2.535  20444.0
   8:    4    2   0.093167     2.535  20447.7
   9:    4    4   0.096695     2.631  21222.1
  10:    5    4   0.096902     2.637  21267.6
  11:    6    4   0.096982     2.639  21285.2
  12:    5    2   0.124610     3.391  27348.8
  13:    6    2   0.124659     3.392  27359.5
  14:    7    2   0.124665     3.392  27360.9
  15:    8    2   0.134756     3.667  29575.5
  16:    9    2   0.148293     4.035  32546.7
  17:   10    2   0.148334     4.036  32555.6
  18:   11    2   0.148452     4.040  32581.4
  19:   12    2   0.153209     4.169  33625.5
  20:   13    2   0.153248     4.170  33634.1
  21:   14    2   0.153334     4.172  33653.0
  22:    7    4   0.157496     4.286  34566.4
  23:    8    4   0.157634     4.289  34596.6
  24:    9    4   0.157637     4.290  34597.3
  25:   15    2   0.163614     4.452  35909.2
  26:   16    2   0.163662     4.453  35919.7
  27:   17    2   0.180012     4.898  39508.0
  28:   18    2   0.180214     4.904  39552.4
  29:   19    2   0.180301     4.906  39571.4
  30:   20    2   0.209551     5.702  45991.2
  31:   21    2   0.209897     5.712  46067.0
  32:   22    2   0.210056     5.716  46101.9
  33:   23    2   0.211041     5.743  46318.1
  34:   24    2   0.211083     5.744  46327.4
  35:   25    2   0.211174     5.746  46347.4
  36:   26    2   0.232486     6.326  51024.7
  37:   27    2   0.238548     6.491  52355.3
  38:   28    2   0.238719     6.496  52392.8
  39:   29    2   0.238787     6.498  52407.6
  40:   30    2   0.250047     6.804  54878.9
  41:   31    2   0.250165     6.807  54904.8
  42:   32    2   0.266759     7.259  58546.9
  43:   33    2   0.266776     7.259  58550.5
  44:   34    2   0.266814     7.260  58559.0
  45:   35    2   0.352272     9.586  77314.8
  46:   36    2   0.352394     9.589  77341.6
  47:   37    2   0.364415     9.916  79979.7
  48:   38    2   0.364593     9.921  80018.8
  49:   39    2   0.365019     9.933  80112.4


--------------
DENSITY MATRIX
--------------

                  0          1          2          3          4    
      0       0.600000  -0.000000  -0.000000  -0.000000   0.000000
      1      -0.000000   0.600000  -0.000000   0.000000  -0.000000
      2      -0.000000  -0.000000   0.600000   0.000000   0.000000
      3      -0.000000   0.000000   0.000000   0.600000   0.000000
      4       0.000000  -0.000000   0.000000   0.000000   0.600000
Trace of the electron density:  3.000000
Extracting Spin-Density from 2-RDM (MULT=4) ... done
Extracting Spin-Density from 2-RDM (MULT=2) ... done

-------------------
SPIN-DENSITY MATRIX
-------------------

                  0          1          2          3          4    
      0       0.400000  -0.000000  -0.000000  -0.000000  -0.000000
      1      -0.000000   0.400000  -0.000000  -0.000000  -0.000000
      2      -0.000000  -0.000000   0.400000   0.000000   0.000000
      3      -0.000000  -0.000000   0.000000   0.400000   0.000000
      4      -0.000000  -0.000000   0.000000   0.000000   0.400000
Trace of the spin density:  2.000000

-----------------
ENERGY COMPONENTS
-----------------

One electron energy          :  -3476.292405493 Eh      -94594.7255 eV
Two electron energy          :   1256.197196317 Eh       34182.8635 eV
Nuclear repulsion energy     :    573.899322982 Eh       15616.5945 eV
                               ----------------
                                -1646.195886193

Kinetic energy               :   1679.960183776 Eh       45714.0407 eV
Potential energy             :  -3326.156069969 Eh      -90509.3081 eV
Virial ratio                 :     -1.979901727 
                               ----------------
                                -1646.195886193

Core energy                  :  -1643.981968021 Eh   -44735.0236 eV


----------------------------
LOEWDIN ORBITAL-COMPOSITIONS
----------------------------

                      0         1         2         3         4         5   
                 -221.56159 -26.33157 -25.65943 -25.65943 -25.65935 -25.65935
                   2.00000   2.00000   2.00000   2.00000   2.00000   2.00000
                  --------  --------  --------  --------  --------  --------
 0 Cr s             100.0     100.0       0.0       0.0       0.0       0.0
 3 F  s               0.0       0.0      33.2      66.7       0.0       0.1
 4 F  s               0.0       0.0      66.8      33.1       0.0       0.1
 5 F  s               0.0       0.0       0.0       0.1      47.0      52.9
 6 F  s               0.0       0.0       0.0       0.1      53.0      46.9

[...]

------------------------------------------------
COMPARISON OF AB INITIO AND LIGAND FIELD RESULTS
------------------------------------------------

Block   1
---------
   AI-Root   0: E(AI)=    0.000 eV -> LF-Root   0:     0.000 eV    S= 1.000 Delta=    0.000 eV
   AI-Root   1: E(AI)=    1.641 eV -> LF-Root   1:     1.638 eV    S= 1.000 Delta=    0.003 eV
   AI-Root   2: E(AI)=    1.643 eV -> LF-Root   2:     1.640 eV    S= 1.000 Delta=    0.003 eV
   AI-Root   3: E(AI)=    1.648 eV -> LF-Root   3:     1.645 eV    S= 1.000 Delta=    0.003 eV
   AI-Root   4: E(AI)=    2.631 eV -> LF-Root   4:     2.625 eV    S= 1.000 Delta=    0.006 eV
   AI-Root   5: E(AI)=    2.637 eV -> LF-Root   5:     2.631 eV    S= 1.000 Delta=    0.006 eV
   AI-Root   6: E(AI)=    2.639 eV -> LF-Root   6:     2.633 eV    S= 1.000 Delta=    0.006 eV
   AI-Root   7: E(AI)=    4.286 eV -> LF-Root   7:     4.282 eV    S= 1.000 Delta=    0.004 eV
   AI-Root   8: E(AI)=    4.289 eV -> LF-Root   8:     4.286 eV    S= 1.000 Delta=    0.004 eV
   AI-Root   9: E(AI)=    4.290 eV -> LF-Root   9:     4.286 eV    S= 1.000 Delta=    0.004 eV
   (Dropping RMS error for the reference energy)
   RMS error for this block =     0.004 eV =      35.4 cm**-1 

Block   2
---------
   AI-Root   0: E(AI)=    2.408 eV -> LF-Root   0:     2.398 eV    S= 1.000 Delta=    0.010 eV
   AI-Root   1: E(AI)=    2.409 eV -> LF-Root   1:     2.399 eV    S= 1.000 Delta=    0.010 eV
   AI-Root   2: E(AI)=    2.535 eV -> LF-Root   2:     2.528 eV    S= 0.999 Delta=    0.007 eV
   AI-Root   3: E(AI)=    2.535 eV -> LF-Root   3:     2.528 eV    S= 1.000 Delta=    0.007 eV
   AI-Root   4: E(AI)=    2.535 eV -> LF-Root   4:     2.528 eV    S= 0.999 Delta=    0.007 eV
   AI-Root   5: E(AI)=    3.391 eV -> LF-Root   5:     3.378 eV    S= 0.999 Delta=    0.013 eV
   AI-Root   6: E(AI)=    3.392 eV -> LF-Root   6:     3.379 eV    S= 1.000 Delta=    0.013 eV
   AI-Root   7: E(AI)=    3.392 eV -> LF-Root   7:     3.379 eV    S= 0.999 Delta=    0.013 eV
   AI-Root   8: E(AI)=    3.667 eV -> LF-Root   8:     3.667 eV    S= 1.000 Delta=   -0.001 eV
   AI-Root   9: E(AI)=    4.035 eV -> LF-Root   9:     4.044 eV    S= 1.000 Delta=   -0.008 eV
   AI-Root  10: E(AI)=    4.036 eV -> LF-Root  10:     4.045 eV    S= 1.000 Delta=   -0.008 eV
   AI-Root  11: E(AI)=    4.040 eV -> LF-Root  11:     4.048 eV    S= 1.000 Delta=   -0.009 eV
   AI-Root  12: E(AI)=    4.169 eV -> LF-Root  12:     4.169 eV    S= 1.000 Delta=   -0.000 eV
   AI-Root  13: E(AI)=    4.170 eV -> LF-Root  13:     4.170 eV    S= 1.000 Delta=   -0.000 eV
   AI-Root  14: E(AI)=    4.172 eV -> LF-Root  14:     4.173 eV    S= 1.000 Delta=   -0.000 eV
   AI-Root  15: E(AI)=    4.452 eV -> LF-Root  15:     4.451 eV    S= 1.000 Delta=    0.002 eV
   AI-Root  16: E(AI)=    4.453 eV -> LF-Root  16:     4.452 eV    S= 1.000 Delta=    0.002 eV
   AI-Root  17: E(AI)=    4.898 eV -> LF-Root  17:     4.907 eV    S= 1.000 Delta=   -0.009 eV
   AI-Root  18: E(AI)=    4.904 eV -> LF-Root  18:     4.913 eV    S= 1.000 Delta=   -0.009 eV
   AI-Root  19: E(AI)=    4.906 eV -> LF-Root  19:     4.915 eV    S= 1.000 Delta=   -0.009 eV
   AI-Root  20: E(AI)=    5.702 eV -> LF-Root  20:     5.697 eV    S= 1.000 Delta=    0.005 eV
   AI-Root  21: E(AI)=    5.712 eV -> LF-Root  21:     5.707 eV    S= 1.000 Delta=    0.005 eV
   AI-Root  22: E(AI)=    5.716 eV -> LF-Root  22:     5.711 eV    S= 1.000 Delta=    0.005 eV
   AI-Root  23: E(AI)=    5.743 eV -> LF-Root  23:     5.751 eV    S= 1.000 Delta=   -0.008 eV
   AI-Root  24: E(AI)=    5.744 eV -> LF-Root  24:     5.752 eV    S= 1.000 Delta=   -0.008 eV
   AI-Root  25: E(AI)=    5.746 eV -> LF-Root  25:     5.754 eV    S= 1.000 Delta=   -0.008 eV
   AI-Root  26: E(AI)=    6.326 eV -> LF-Root  26:     6.323 eV    S= 1.000 Delta=    0.003 eV
   AI-Root  27: E(AI)=    6.491 eV -> LF-Root  27:     6.487 eV    S= 1.000 Delta=    0.004 eV
   AI-Root  28: E(AI)=    6.496 eV -> LF-Root  28:     6.491 eV    S= 1.000 Delta=    0.004 eV
   AI-Root  29: E(AI)=    6.498 eV -> LF-Root  29:     6.493 eV    S= 1.000 Delta=    0.004 eV
   AI-Root  30: E(AI)=    6.804 eV -> LF-Root  30:     6.781 eV    S= 1.000 Delta=    0.023 eV
   AI-Root  31: E(AI)=    6.807 eV -> LF-Root  31:     6.784 eV    S= 1.000 Delta=    0.023 eV
   AI-Root  32: E(AI)=    7.259 eV -> LF-Root  32:     7.262 eV    S= 1.000 Delta=   -0.004 eV
   AI-Root  33: E(AI)=    7.259 eV -> LF-Root  33:     7.263 eV    S= 1.000 Delta=   -0.003 eV
   AI-Root  34: E(AI)=    7.260 eV -> LF-Root  34:     7.263 eV    S= 1.000 Delta=   -0.003 eV
   AI-Root  35: E(AI)=    9.586 eV -> LF-Root  35:     9.583 eV    S= 1.000 Delta=    0.002 eV
   AI-Root  36: E(AI)=    9.589 eV -> LF-Root  36:     9.587 eV    S= 1.000 Delta=    0.002 eV
   AI-Root  37: E(AI)=    9.916 eV -> LF-Root  37:     9.913 eV    S= 1.000 Delta=    0.003 eV
   AI-Root  38: E(AI)=    9.921 eV -> LF-Root  38:     9.918 eV    S= 1.000 Delta=    0.003 eV
   AI-Root  39: E(AI)=    9.933 eV -> LF-Root  39:     9.930 eV    S= 1.000 Delta=    0.003 eV
   RMS error for this block =     0.008 eV =      67.0 cm**-1 

Total RMS error g=     0.008 eV =      62.4 cm**-1
Note: Dropped RMS error for the reference energy.

Confidence intervals (95%) computed from the square root of the
diagonal elements of the covariance matrix:
H(dz2   ,dz2   )=  0.000000000 a.u. =     0.000 eV =       0.0 cm**-1
H(dxz   ,dz2   )=  0.000000000 a.u. =     0.000 eV =       0.0 cm**-1
H(dxz   ,dxz   )=  0.000000000 a.u. =     0.000 eV =       0.0 cm**-1
H(dyz   ,dz2   )=  0.000000000 a.u. =     0.000 eV =       0.0 cm**-1
H(dyz   ,dxz   )=  0.000000000 a.u. =     0.000 eV =       0.0 cm**-1
H(dyz   ,dyz   )=  0.000000000 a.u. =     0.000 eV =       0.0 cm**-1
H(dx2-y2,dz2   )=  0.000000000 a.u. =     0.000 eV =       0.0 cm**-1
H(dx2-y2,dxz   )=  0.000000000 a.u. =     0.000 eV =       0.0 cm**-1
H(dx2-y2,dyz   )=  0.000000000 a.u. =     0.000 eV =       0.0 cm**-1
H(dx2-y2,dx2-y2)=  0.000000000 a.u. =     0.000 eV =       0.0 cm**-1
H(dxy   ,dz2   )=  0.000000000 a.u. =     0.000 eV =       0.0 cm**-1
H(dxy   ,dxz   )=  0.000000000 a.u. =     0.000 eV =       0.0 cm**-1
H(dxy   ,dyz   )=  0.000000000 a.u. =     0.000 eV =       0.0 cm**-1
H(dxy   ,dx2-y2)=  0.000000000 a.u. =     0.000 eV =       0.0 cm**-1
H(dxy   ,dxy   )=  0.000000000 a.u. =     0.000 eV =       0.0 cm**-1
F2dd            =  0.000000000 a.u. =     0.000 eV =       0.0 cm**-1
F4dd            =  0.000000000 a.u. =     0.000 eV =       0.0 cm**-1
Pearson's correlation coefficient =    1.000 (should be close to 1)

----------------------------------------------
SPIN ORBIT COUPLING (based on CASSCF orbitals)
----------------------------------------------

AI-SOC-X integrals (cm-1)
                  0          1          2          3          4    
      0       0.000000  -0.000000 452.469214  -0.000000   0.008301
      1       0.000000   0.000000   0.008873   0.000000 264.990297
      2     -452.469214  -0.008873   0.000000 -261.240380  -0.000000
      3       0.000000  -0.000000 261.240380   0.000000   0.001040
      4      -0.008301 -264.990297   0.000000  -0.001040   0.000000
AI-SOC-Y integrals (cm-1)
                  0          1          2          3          4    
      0      -0.000000 -452.451457   0.000000  -0.012105   0.000000
      1     452.451457   0.000000  -0.000000 -261.221256  -0.000000
      2      -0.000000   0.000000   0.000000   0.000000 -265.055302
      3       0.012105 261.221256  -0.000000   0.000000   0.000000
      4      -0.000000   0.000000 265.055302  -0.000000  -0.000000
AI-SOC-Z integrals (cm-1)
                  0          1          2          3          4    
      0       0.000000  -0.000000   0.000409   0.000000   0.022423
      1       0.000000   0.000000 -265.035680  -0.000000  -0.009884
      2      -0.000409 265.035680   0.000000   0.010882   0.000000
      3      -0.000000   0.000000  -0.010882  -0.000000 -522.452397
      4      -0.022423   0.009884  -0.000000 522.452397  -0.000000

Fit to the SOC matrix elements
a = 15.000000
b =     0.487 eV =    3929.8 cm**-1
SOC constant zeta =     0.032 eV =     262.0 cm**-1


LF-SOC-X integrals (cm-1)
                  0          1          2          3          4    
      0       0.000000  -0.000000 453.776098  -0.000000  -0.000000
      1       0.000000   0.000000  -0.000000  -0.000000 261.987753
      2     -453.776098   0.000000   0.000000 -261.987753  -0.000000
      3       0.000000   0.000000 261.987753   0.000000  -0.000000
      4       0.000000 -261.987753   0.000000   0.000000   0.000000
LF-SOC-Y integrals (cm-1)
                  0          1          2          3          4    
      0       0.000000 -453.776098  -0.000000  -0.000000  -0.000000
      1     453.776098   0.000000  -0.000000 -261.987753  -0.000000
      2       0.000000   0.000000   0.000000  -0.000000 -261.987753
      3       0.000000 261.987753   0.000000   0.000000  -0.000000
      4       0.000000   0.000000 261.987753   0.000000   0.000000
LF-SOC-Z integrals (cm-1)
                  0          1          2          3          4    
      0       0.000000  -0.000000  -0.000000  -0.000000  -0.000000
      1       0.000000   0.000000 -261.987753  -0.000000  -0.000000
      2       0.000000 261.987753   0.000000  -0.000000  -0.000000
      3       0.000000   0.000000   0.000000   0.000000 -523.975505
      4       0.000000   0.000000   0.000000 523.975505   0.000000

RMS error of nonzero matrix elements =    2.1 cm**-1


-----SOC-CONSTANTS-----
---All Values in cm-1---
ZETA_D = 261.99 
------------------------




---AILFT COMPLETED SUCCESFULLY!---
-------------------------------------------------------------------------------
                     ORCA-AILFT TERMINATED SUCCESFULLY
-------------------------------------------------------------------------------


--------------
CASSCF TIMINGS
--------------

Total time                       ...      205.4 sec
Sum of individual times          ...      334.8 sec (163.0%)

Calculation of AO operators
   F(Core) operator              ...       15.1 sec (  7.3%)
   G(Act) operator               ...       13.2 sec (  6.4%)
Calculation of MO transformed quantities
   J(MO) operators               ...       42.8 sec ( 20.8%)
   AO->MO one electron integrals ...        0.0 sec (  0.0%)
Configuration interaction steps
   CI-setup phase                ...        0.0 sec (  0.0%)
   CI-solution phase             ...        0.0 sec (  0.0%)
   Generation of densities       ...        0.0 sec (  0.0%)
Orbital improvement steps
   Orbital gradient              ...        0.0 sec (  0.0%)
CPCM steps
   Total CPCM time               ...        0.0 sec (  0.0%)
Properties                       ...      131.9 sec ( 64.2%)
   SOC integral calculation      ...      131.6 sec ( 64.1%)
   SSC RMEs (incl. integrals)    ...        0.0 sec (  0.0%)
   SOC RMEs                      ...        0.1 sec (  0.1%)

Maximum memory used throughout the entire CASSCF-calculation: 161.2 MB

------------------------------------------------------------------------------
                         ORCA PROPERTY INTEGRAL CALCULATIONS
------------------------------------------------------------------------------

GBWName                                   ... mol.gbw
Number of atoms                           ...      7
Number of basis functions                 ...    247
Max core memory                           ...   1024 MB

Dipole integrals                          ... YES
Quadrupole integrals                      ...  NO
Linear Momentum integrals                 ...  NO
Angular Momentum integrals                ...  NO
Higher Moments length integrals           ...  NO
Higher Moments velocity integrals         ...  NO
Kinetic energy integrals                  ...  NO
GIAO Right Hand Sides                     ...  NO
SOC integrals                             ...  NO
EPR diamagnetic integrals (GIAO)          ...  NO
EPR gauge integrals                       ...  NO
Field gradient integrals                  ...  NO (   0 nuclei)
Spin-dipole/Fermi contact integrals       ...  NO (   0 nuclei)
Nucleus-orbit integrals                   ...  NO (   0 nuclei)
Geometric perturbations                   ...  NO (   7 nuclei)
Electric origin: (  0.0000,  0.0000,  0.0000) 
Magnetic origin: (  0.0000,  0.0000,  0.0000) 

Calculating integrals                     ... Electric Dipole (Length)     done (  0.0 sec)

Property integrals calculated in   0.0 sec

Maximum memory used throughout the entire PROPINT-calculation: 23.3 MB

-------------------------   --------------------
FINAL SINGLE POINT ENERGY     -1646.195886192985
-------------------------   --------------------


                            ***************************************
                            *     ORCA property calculations      *
                            ***************************************

                                    ---------------------
                                    Active property flags
                                    ---------------------
   (+) Dipole Moment


------------------------------------------------------------------------------
                       ORCA ELECTRIC PROPERTIES CALCULATION
------------------------------------------------------------------------------

Dipole Moment Calculation                       ... ON
Quadrupole Moment Calculation                   ... OFF
Polarizability Calculation                      ... OFF
Atomic Dipole Moment Calculation                ... OFF
Atomic Quadrupole Moment Calculation            ... OFF
Atomic Polarizability Calculation               ... OFF
Relativistic picture-change correction          ... OFF
GBWName                                         ... mol.gbw
Electron density                                ... mol.scfp

The origin for moment calculation is the CENTER OF MASS  = ( 0.000000,  0.000000  0.000000)

-------------
DIPOLE MOMENT
-------------
                                X             Y             Z
Electronic contribution:      0.00000      -0.00000       0.00000
Nuclear contribution   :      0.00000       0.00000       0.00000
                        -----------------------------------------
Total Dipole Moment    :      0.00000      -0.00000       0.00000
                        -----------------------------------------
Magnitude (a.u.)       :      0.00000
Magnitude (Debye)      :      0.00000



--------------------
Rotational spectrum 
--------------------
 
Rotational constants in cm-1:     0.058957     0.058870     0.058856 
Rotational constants in MHz :  1767.478331  1764.878199  1764.461901 

 Dipole components along the rotational axes: 
x,y,z [a.u.] :    -0.000001    -0.000000     0.000001 
x,y,z [Debye]:    -0.000003    -0.000001     0.000003 

 

--------------------------------
SUGGESTED CITATIONS FOR THIS RUN
--------------------------------

Below you find a list of papers that are relevant to this ORCA run
We neither can nor want to force you to cite these paper, but we appreciate if you do
You receive ORCA, which is the product of a lot of hard work by many enthusiastic individuals, for free
The only thing we kindly ask in return is that you cite our papers,
We deeply appreciate it, if you show your appreciation for ORCA by not just citing the generic ORCA reference.

Please note that relegating all ORCA citations to the supporting information does *not* help us.
SI sections are not indexed - citations you put there will not count into any citation statistics
But we need these citations in order to attract the funding resources that allow us to do what we are doing

Therefore, if you are a happy ORCA user, please consider citing a few of the papers listed below in the main body of your paper

In addition to the list printed below, the program has created the file mol.bibtex that contains the list in bibtex format
You can import this file easily into all common literature databanks and citation aid programs


List of essential papers. We consider these as the minimum necessary citations

  1. Neese,F.
     Software update: the ORCA program system, version 5.0
     WIRES Comput. Molec. Sci., 2022 12(1)e1606
     doi.org/10.1002/wcms.1606

List of papers to cite with high priority. The work reported in these papers was absolutely
necessary for this run to complete.
Our perspective: the developers of density functionals and basis sets usually get cited in chemistry papers
Good! But without the algorithms to do something with them, the functionals or basis sets would not do anything.
Hence, in our opinion, the algorithm design and method developments papers are equally worthy of getting cited

  1. Atanasov,M.; Ganyushin,D.; Sivalingam,K.; Neese,F.
     A Modern First-Principles View on Ligand Field Theory Through the Eyes of Correlated Multireference Wavefunctions
     Struct. Bond., 2012 142 149-220
     doi.org/10.1007/430_2011_57
  2. Stoychev,G.L.; Auer,A.A.; Neese,F.
     Automatic Generation of Auxiliary Basis Sets
     J. Theo. Comp. Chem., 2017 13 554-562
     doi.org/10.1021/acs.jctc.6b01041
  3. Kollmar,C.; Sivalingam,K.; Helmich-Paris,B.; Angeli,C.; Neese,F.
     A perturbation-based super-CI approach for the orbital optimization of a CASSCF wave function
     J. Comput. Chem., 2019 40 1463-1470
     doi.org/10.1002/jcc.25801
  4. Neese,F.
     The SHARK Integral Generation and Digestion System
     J. Comp. Chem., 2022  1-16
     doi.org/10.1002/jcc.26942

List of suggested additional citations. These are papers that are important in the 'surrounding' of 
of this run, or papers that preceded the highly important papers. If you like your results we are grateful for a citation.

  1. Neese,F.
     The ORCA program system
     WIRES Comput. Molec. Sci., 2012 2(1)73-78
     doi.org/10.1002/wcms.81
  2. Neese,F.
     Software update: the ORCA program system, version 4.0
     WIRES Comput. Molec. Sci., 2018 8(1)1-6
     doi.org/10.1002/wcms.1327
  3. Neese,F.; Wennmohs,F.; Becker,U.; Riplinger,C.
     The ORCA quantum chemistry program package
     J. Chem. Phys., 2020 152 Art. No. L224108
     doi.org/10.1063/5.0004608

Timings for individual modules:

Sum of individual times         ...      207.517 sec (=   3.459 min)
GTO integral calculation        ...        1.462 sec (=   0.024 min)   0.7 %
Relativistic integrals          ...        0.298 sec (=   0.005 min)   0.1 %
SCF iterations                  ...        0.171 sec (=   0.003 min)   0.1 %
CASSCF iterations               ...      205.427 sec (=   3.424 min)  99.0 %
Property integrals              ...        0.159 sec (=   0.003 min)   0.1 %
                             ****ORCA TERMINATED NORMALLY****
TOTAL RUN TIME: 0 days 0 hours 3 minutes 27 seconds 712 msec
'mol.CAS_DTensor_HEFF_rotated.xyz' -> '/csnfs/users/llang/calculations/LFTprogram/CrF63-/mol.CAS_DTensor_HEFF_rotated.xyz'
'mol.FAO_CAS' -> '/csnfs/users/llang/calculations/LFTprogram/CrF63-/mol.FAO_CAS'
'mol.bibtex' -> '/csnfs/users/llang/calculations/LFTprogram/CrF63-/mol.bibtex'
'mol.casscf.lft.gbw' -> '/csnfs/users/llang/calculations/LFTprogram/CrF63-/mol.casscf.lft.gbw'
'mol.densities' -> '/csnfs/users/llang/calculations/LFTprogram/CrF63-/mol.densities'
'mol.densities.previous' -> '/csnfs/users/llang/calculations/LFTprogram/CrF63-/mol.densities.previous'
'mol.err' -> '/csnfs/users/llang/calculations/LFTprogram/CrF63-/mol.err'
'mol.fsv' -> '/csnfs/users/llang/calculations/LFTprogram/CrF63-/mol.fsv'
'mol.gbw' -> '/csnfs/users/llang/calculations/LFTprogram/CrF63-/mol.gbw'
'mol.ges' -> '/csnfs/users/llang/calculations/LFTprogram/CrF63-/mol.ges'
'mol.job' -> '/csnfs/users/llang/calculations/LFTprogram/CrF63-/mol.job'
'mol_property.txt' -> '/csnfs/users/llang/calculations/LFTprogram/CrF63-/mol_property.txt'
cp: cannot stat 'mol.asa.inp': No such file or directory
'mol.casscf.lft.inp' -> '/csnfs/users/llang/calculations/LFTprogram/CrF63-/mol.casscf.lft.inp'
