! Job execution by suborca V 9.38 !
Job started from head1.mpi-muelheim.mpg.de, running /hsnfs/software/orca/orca_current_directory/orca_current_20230920/orca on xe30th127.mpi-muelheim.mpg.de in /usr/scratch/llang/mol__363279 (/bin/tcsh)
Job execution start: Wed Sep 20 11:03:41 CEST 2023
Shared library path: /hsnfs/software/openmpi-4.1.0/lib:/hsnfs/software/orca/orca_current_directory/orca_current_20230920:/hsnfs/software/themis/llvm-14.0.1/lib:/hsnfs/software/orca/orca_stable:/usr/users/openmpi-2.0.4/lib:/opt/intel/lib/intel64:/opt/intel/mkl/lib/intel64
SLURM Job ID is: 363279
SLURM_JOB_NODELIST: xe30th127
Maxcore enforced by SLURM: 2048 MB per core
Expanded nodelist (1 nodes):
xe30th127

                                 *****************
                                 * O   R   C   A *
                                 *****************

                                            #,                                       
                                            ###                                      
                                            ####                                     
                                            #####                                    
                                            ######                                   
                                           ########,                                 
                                     ,,################,,,,,                         
                               ,,#################################,,                 
                          ,,##########################################,,             
                       ,#########################################, ''#####,          
                    ,#############################################,,   '####,        
                  ,##################################################,,,,####,       
                ,###########''''           ''''###############################       
              ,#####''   ,,,,##########,,,,          '''####'''          '####       
            ,##' ,,,,###########################,,,                        '##       
           ' ,,###''''                  '''############,,,                           
         ,,##''                                '''############,,,,        ,,,,,,###''
      ,#''                                            '''#######################'''  
     '                                                          ''''####''''         
             ,#######,   #######,   ,#######,      ##                                
            ,#'     '#,  ##    ##  ,#'     '#,    #''#        ,####,   ,####,        
            ##       ##  ##   ,#'  ##            #'  '#       #'       #'  '#        
            ##       ##  #######   ##           ,######,      #####,   #    #        
            '#,     ,#'  ##    ##  '#,     ,#' ,#      #,     #,   #   #,  ,#        
             '#######'   ##     ##  '#######'  #'      '#     '####' # '####'.alpha  



                  #######################################################
                  #                        -***-                        #
                  #          Department of theory and spectroscopy      #
                  #    Directorship and core code : Frank Neese         #
                  #        Max Planck Institute fuer Kohlenforschung    #
                  #                Kaiser Wilhelm Platz 1               #
                  #                 D-45470 Muelheim/Ruhr               #
                  #                      Germany                        #
                  #                                                     #
                  #                  All rights reserved                #
                  #                        -***-                        #
                  #######################################################


                         Program Version 5.0  -  CURRENT   -
                                (GIT: $1f25d5964a$)
                ($2023-09-19 16:23:04 +0200 $)

                  !                     WARNING:                         !
                  !         This is a DEVELOPMENT version                !

                         (BUILD: $Mi 20. Sep 00:08:32 CEST 2023$)


 With contributions from (in alphabetic order):
   Daniel Aravena         : Magnetic Suceptibility
   Michael Atanasov       : Ab Initio Ligand Field Theory (pilot matlab implementation)
   Alexander A. Auer      : GIAO ZORA, VPT2 properties, NMR spectrum
   Ute Becker             : Parallelization
   Giovanni Bistoni       : ED, misc. LED, open-shell LED, HFLD
   Martin Brehm           : Molecular dynamics
   Dmytro Bykov           : SCF Hessian
   Vijay G. Chilkuri      : MRCI spin determinant printing, contributions to CSF-ICE
   Dipayan Datta          : RHF DLPNO-CCSD density
   Achintya Kumar Dutta   : EOM-CC, STEOM-CC
   Dmitry Ganyushin       : Spin-Orbit,Spin-Spin,Magnetic field MRCI
   Miquel Garcia          : C-PCM and meta-GGA Hessian, CCSD/C-PCM, Gaussian charge scheme
   Yang Guo               : DLPNO-NEVPT2, F12-NEVPT2, CIM, IAO-localization
   Andreas Hansen         : Spin unrestricted coupled pair/coupled cluster methods
   Benjamin Helmich-Paris : MC-RPA, TRAH-(SCF,CASSCF), AVAS, COSX integrals, SCF dyn. polar.
   Lee Huntington         : MR-EOM, pCC
   Robert Izsak           : Overlap fitted RIJCOSX, COSX-SCS-MP3, EOM
   Marcus Kettner         : VPT2
   Christian Kollmar      : KDIIS, OOCD, Brueckner-CCSD(T), CCSD density, CASPT2, CASPT2-K, improved NEVPT2
   Simone Kossmann        : Meta GGA functionals, TD-DFT gradient, OOMP2, MP2 Hessian
   Martin Krupicka        : Initial AUTO-CI
   Lucas Lang             : DCDCAS
   Marvin Lechner         : AUTO-CI (C++ implementation), FIC-MRCC
   Dagmar Lenk            : GEPOL surface, SMD
   Dimitrios Liakos       : Extrapolation schemes; Compound Job, initial MDCI parallelization
   Dimitrios Manganas     : Further ROCIS development; embedding schemes
   Dimitrios Pantazis     : SARC Basis sets
   Anastasios Papadopoulos: AUTO-CI, single reference methods and gradients
   Taras Petrenko         : DFT Hessian,TD-DFT gradient, ASA, ECA, R-Raman, ABS, FL, XAS/XES, NRVS
   Peter Pinski           : DLPNO-MP2, DLPNO-MP2 Gradient
   Christoph Reimann      : Effective Core Potentials
   Marius Retegan         : Local ZFS, SOC
   Christoph Riplinger    : Optimizer, TS searches, QM/MM, DLPNO-CCSD(T), (RO)-DLPNO pert. Triples
   Tobias Risthaus        : Range-separated hybrids, TD-DFT gradient, RPA, STAB
   Michael Roemelt        : Original ROCIS implementation
   Masaaki Saitow         : Open-shell DLPNO-CCSD energy and density
   Barbara Sandhoefer     : DKH picture change effects
   Avijit Sen             : IP-ROCIS
   Kantharuban Sivalingam : CASSCF convergence, NEVPT2, FIC-MRCI
   Bernardo de Souza      : ESD, SOC TD-DFT
   Georgi Stoychev        : AutoAux, RI-MP2 NMR, DLPNO-MP2 response
   Willem Van den Heuvel  : Paramagnetic NMR
   Boris Wezisla          : Elementary symmetry handling
   Frank Wennmohs         : Technical directorship


 We gratefully acknowledge several colleagues who have allowed us to
 interface, adapt or use parts of their codes:
   Stefan Grimme, W. Hujo, H. Kruse, P. Pracht,  : VdW corrections, initial TS optimization,
                  C. Bannwarth, S. Ehlert          DFT functionals, gCP, sTDA/sTD-DF
   Ed Valeev, F. Pavosevic, A. Kumar             : LibInt (2-el integral package), F12 methods
   Garnet Chan, S. Sharma, J. Yang, R. Olivares  : DMRG
   Ulf Ekstrom                                   : XCFun DFT Library
   Mihaly Kallay                                 : mrcc  (arbitrary order and MRCC methods)
   Jiri Pittner, Ondrej Demel                    : Mk-CCSD
   Frank Weinhold                                : gennbo (NPA and NBO analysis)
   Christopher J. Cramer and Donald G. Truhlar   : smd solvation model
   Lars Goerigk                                  : TD-DFT with DH, B97 family of functionals
   V. Asgeirsson, H. Jonsson                     : NEB implementation
   FAccTs GmbH                                   : IRC, NEB, NEB-TS, DLPNO-Multilevel, CI-OPT
                                                   MM, QMMM, 2- and 3-layer-ONIOM, Crystal-QMMM,
                                                   LR-CPCM, SF, NACMEs, symmetry and pop. for TD-DFT,
                                                   nearIR, NL-DFT gradient (VV10), updates on ESD,
                                                   ML-optimized integration grids
   S Lehtola, MJT Oliveira, MAL Marques          : LibXC Library
   Liviu Ungur et al                             : ANISO software


 Your calculation uses the libint2 library for the computation of 2-el integrals
 For citations please refer to: http://libint.valeyev.net

 Your ORCA version has been built with support for libXC version: 5.2.2
 For citations please refer to: https://tddft.org/programs/libxc/

 This ORCA versions uses:
   CBLAS   interface :  Fast vector & matrix operations
   LAPACKE interface :  Fast linear algebra routines
   SCALAPACK package :  Parallel linear algebra routines
   Shared memory     :  Shared parallel matrices


================================================================================

----- Orbital basis set information -----
Your calculation utilizes the basis: DKH-def2-TZVP
   Exponents from def2-TZVP [F. Weigend and R. Ahlrichs, Phys. Chem. Chem. Phys. 7, 3297 (2005)],
   recontracted for DKH2 by D. A. Pantazis.

The basis set includes element-specific modifications.

Your calculation utilizes the basis: SARC-DKH-TZVP 
   Rb-Xe:  J. D. Rolfes, F. Neese and D. A. Pantazis, J. Comput. Chem. 41, 1842 (2020).
   La-Lu:  D. A. Pantazis and F. Neese, J. Chem. Theory Comput. 5, 2229 (2009).
   Hf-Hg:  D. A. Pantazis, X. Y. Chen, C. R. Landis and F. Neese, J. Chem. Theory Comput. 4, 908 (2008).
   Tl-Rn:  D. A. Pantazis and F. Neese, Theor. Chem. Acc. 131, 1292 (2012).
   Ac-Lr:  D. A. Pantazis and F. Neese, J. Chem. Theory Comput. 7, 677 (2011).

----- AuxJ basis set information -----
Your calculation utilizes the AutoAux generation procedure.
  G. L. Stoychev, A. A. Auer, F. Neese, J. Chem. Theory Comput. 13, 554 (2017)

----- AuxC basis set information -----
Your calculation utilizes the AutoAux generation procedure.
  G. L. Stoychev, A. A. Auer, F. Neese, J. Chem. Theory Comput. 13, 554 (2017)

----- AuxJK basis set information -----
Your calculation utilizes the AutoAux generation procedure.
  G. L. Stoychev, A. A. Auer, F. Neese, J. Chem. Theory Comput. 13, 554 (2017)

----- AuxX basis set information -----
Your calculation utilizes the AutoAux generation procedure.
  G. L. Stoychev, A. A. Auer, F. Neese, J. Chem. Theory Comput. 13, 554 (2017)

================================================================================
                                        WARNINGS
                       Please study these warnings very carefully!
================================================================================

================================================================================
                                       INPUT FILE
================================================================================
NAME = mol.inp
|  1> ! DKH2 DKH-def2-TZVP autoaux
|  2> ! moread
|  3> 
|  4> %moinp "mergefrag.gbw"
|  5> 
|  6> %casscf
|  7>   nel 11
|  8>   norb 7
|  9>   mult 4,2
| 10>   nroots 35,112
| 11>   actorbs forbs
| 12>   rel
| 13>     dosoc true
| 14>   end
| 15> end
| 16> 
| 17> %basis
| 18>   NewGTO Er "SARC-DKH-TZVP" end
| 19> end
| 20> 
| 21> *xyz -3 4
| 22> Cl  2.64077917312307      0.00000019613075      0.00256802134357
| 23> Cl  -2.64078072995339      0.00000017018557     -0.00256293549028
| 24> Cl  -0.00000106775484      2.63798997095887     -0.00000096827441
| 25> Cl  -0.00000109362920     -2.63799008810071     -0.00000095041678
| 26> Cl  0.00256959126759     -0.00000013030049      2.63862939170987
| 27> Cl  -0.00256272345189     -0.00000011254506     -2.63863133485473
| 28> Er  -0.00000314960134     -0.00000000632892     -0.00000122401725
| 29> *
| 30> 
| 31> 
| 32>                          ****END OF INPUT****
================================================================================

                       ****************************
                       * Single Point Calculation *
                       ****************************

---------------------------------
CARTESIAN COORDINATES (ANGSTROEM)
---------------------------------
  Cl     2.640779    0.000000    0.002568
  Cl    -2.640781    0.000000   -0.002563
  Cl    -0.000001    2.637990   -0.000001
  Cl    -0.000001   -2.637990   -0.000001
  Cl     0.002570   -0.000000    2.638629
  Cl    -0.002563   -0.000000   -2.638631
  Er    -0.000003   -0.000000   -0.000001

----------------------------
CARTESIAN COORDINATES (A.U.)
----------------------------
  NO LB      ZA    FRAG     MASS         X           Y           Z
   0 Cl   17.0000    0    35.453    4.990349    0.000000    0.004853
   1 Cl   17.0000    0    35.453   -4.990352    0.000000   -0.004843
   2 Cl   17.0000    0    35.453   -0.000002    4.985079   -0.000002
   3 Cl   17.0000    0    35.453   -0.000002   -4.985079   -0.000002
   4 Cl   17.0000    0    35.453    0.004856   -0.000000    4.986287
   5 Cl   17.0000    0    35.453   -0.004843   -0.000000   -4.986291
   6 Er   68.0000    0   167.260   -0.000006   -0.000000   -0.000002

--------------------------------
INTERNAL COORDINATES (ANGSTROEM)
--------------------------------
 Cl     0   0   0     0.000000000000     0.00000000     0.00000000
 Cl     1   0   0     5.281562395400     0.00000000     0.00000000
 Cl     2   1   0     3.732655084111    44.96970508     0.00000000
 Cl     2   1   3     3.732655389157    44.96971089   179.99984788
 Cl     1   2   3     3.729473065479    45.03232540    90.00008306
 Cl     2   1   3     3.729483993257    45.03231031    89.99993017
 Er     3   2   1     2.637989977289    45.03024942     0.00000000

---------------------------
INTERNAL COORDINATES (A.U.)
---------------------------
 Cl     0   0   0     0.000000000000     0.00000000     0.00000000
 Cl     1   0   0     9.980706486523     0.00000000     0.00000000
 Cl     2   1   0     7.053695861359    44.96970508     0.00000000
 Cl     2   1   3     7.053696437813    44.96971089   179.99984788
 Cl     1   2   3     7.047682717591    45.03232540    90.00008306
 Cl     2   1   3     7.047703368098    45.03231031    89.99993017
 Er     3   2   1     4.985078601105    45.03024942     0.00000000

---------------------
BASIS SET INFORMATION
---------------------
There are 2 groups of distinct atoms

 Group   1 Type Cl  : 14s9p3d1f contracted to 8s4p2d1f pattern {71111111/6111/21/1}
 Group   2 Type Er  : 23s16p12d6f contracted to 18s12p9d3f pattern {611111111111111111/511111111111/411111111/411}

---------------------------------
AUXILIARY/J BASIS SET INFORMATION
---------------------------------
There are 2 groups of distinct atoms

 Group   1 Type Cl  : 18s15p14d9f5g contracted to 18s15p14d9f5g pattern {111111111111111111/111111111111111/11111111111111/111111111/11111}
 Group   2 Type Er  : 32s29p28d28f20g14h8i contracted to 32s29p28d28f20g14h8i pattern {11111111111111111111111111111111/11111111111111111111111111111/1111111111111111111111111111/1111111111111111111111111111/11111111111111111111/11111111111111/11111111}

---------------------------------
AUXILIARY/C BASIS SET INFORMATION
---------------------------------
There are 2 groups of distinct atoms

 Group   1 Type Cl  : 18s15p14d9f5g contracted to 18s15p14d9f5g pattern {111111111111111111/111111111111111/11111111111111/111111111/11111}
 Group   2 Type Er  : 32s29p28d28f20g14h8i contracted to 32s29p28d28f20g14h8i pattern {11111111111111111111111111111111/11111111111111111111111111111/1111111111111111111111111111/1111111111111111111111111111/11111111111111111111/11111111111111/11111111}

----------------------------------
AUXILIARY/JK BASIS SET INFORMATION
----------------------------------
There are 2 groups of distinct atoms

 Group   1 Type Cl  : 18s15p14d9f5g contracted to 18s15p14d9f5g pattern {111111111111111111/111111111111111/11111111111111/111111111/11111}
 Group   2 Type Er  : 32s29p28d28f20g14h8i contracted to 32s29p28d28f20g14h8i pattern {11111111111111111111111111111111/11111111111111111111111111111/1111111111111111111111111111/1111111111111111111111111111/11111111111111111111/11111111111111/11111111}

---------------------------------
AUXILIARY/X BASIS SET INFORMATION
---------------------------------
There are 2 groups of distinct atoms

 Group   1 Type Cl  : 18s15p14d9f5g contracted to 18s15p14d9f5g pattern {111111111111111111/111111111111111/11111111111111/111111111/11111}
 Group   2 Type Er  : 32s29p28d28f20g14h8i contracted to 32s29p28d28f20g14h8i pattern {11111111111111111111111111111111/11111111111111111111111111111/1111111111111111111111111111/1111111111111111111111111111/11111111111111111111/11111111111111/11111111}

------------------------------------------------------------------------------
                           ORCA GTO INTEGRAL CALCULATION
------------------------------------------------------------------------------
------------------------------------------------------------------------------
                   ___                                                        
                  /   \      - P O W E R E D   B Y -                         
                 /     \                                                     
                 |  |  |   _    _      __       _____    __    __             
                 |  |  |  | |  | |    /  \     |  _  \  |  |  /  |          
                  \  \/   | |  | |   /    \    | | | |  |  | /  /          
                 / \  \   | |__| |  /  /\  \   | |_| |  |  |/  /          
                |  |  |   |  __  | /  /__\  \  |    /   |      \           
                |  |  |   | |  | | |   __   |  |    \   |  |\   \          
                \     /   | |  | | |  |  |  |  | |\  \  |  | \   \       
                 \___/    |_|  |_| |__|  |__|  |_| \__\ |__|  \__/        
                                                                              
                      - O R C A' S   B I G   F R I E N D -                    
                                      &                                       
                       - I N T E G R A L  F E E D E R -                       
                                                                              
 v1 FN, 2020, v2 2021                                                         
------------------------------------------------------------------------------


----------------------
SHARK INTEGRAL PACKAGE
----------------------

Number of atoms                             ...      7
Number of basis functions                   ...    342
Number of shells                            ...    132
Maximum angular momentum                    ...      3
Integral batch strategy                     ... SHARK/LIBINT Hybrid
RI-J (if used) integral strategy            ... SPLIT-RIJ (Revised 2003 algorithm where possible)
Printlevel                                  ...      1
Contraction scheme used                     ... SEGMENTED contraction
Prescreening option                         ... SCHWARTZ
   Thresh                                   ... 1.000e-10
   Tcut                                     ... 1.000e-11
   Tpresel                                  ... 1.000e-11 
Coulomb Range Separation                    ... NOT USED
Exchange Range Separation                   ... NOT USED
Multipole approximations                    ... NOT USED
Finite Nucleus Model                        ... NOT USED
Auxiliary Coulomb fitting basis             ... AVAILABLE
   # of basis functions in Aux-J            ...   2339
   # of shells in Aux-J                     ...    525
   Maximum angular momentum in Aux-J        ...      6
Auxiliary J/K fitting basis                 ... AVAILABLE
   # of basis functions in Aux-JK           ...   2339
   # of shells in Aux-JK                    ...    525
   Maximum angular momentum in Aux-JK       ...      6
Auxiliary Correlation fitting basis         ... AVAILABLE
   # of basis functions in Aux-C            ...   2339
   # of shells in Aux-C                     ...    525
   Maximum angular momentum in Aux-C        ...      6
Auxiliary 'external' fitting basis          ... NOT available

Calculating pre-screening integrals         ... done (  0.1 sec) Dimension = 132
Organizing shell pair data                  ... done (  0.1 sec)
Shell pair information
Total number of shell pairs                 ...      8778
Shell pairs after pre-screening             ...      6217
Total number of primitive shell pairs       ...     24349
Primitive shell pairs kept                  ...     12085
          la=0 lb=0:   1107 shell pairs
          la=1 lb=0:   1614 shell pairs
          la=1 lb=1:    570 shell pairs
          la=2 lb=0:   1026 shell pairs
          la=2 lb=1:    690 shell pairs
          la=2 lb=2:    228 shell pairs
          la=3 lb=0:    444 shell pairs
          la=3 lb=1:    312 shell pairs
          la=3 lb=2:    183 shell pairs
          la=3 lb=3:     43 shell pairs

Calculating one electron integrals          ... done (  0.0 sec)
Calculating RI/J V-Matrix + Cholesky decomp.... done (  0.3 sec)
Calculating RI/JK V-Matrix + Cholesky decomp... done (  0.3 sec)
Calculating RI/C V-Matrix + Cholesky decomp.... done (  0.3 sec)
Calculating Nuclear repulsion               ... done (  0.0 sec) ENN=   1969.375228272391 Eh

-------------------
DFT GRID GENERATION
-------------------

General Integration Accuracy     IntAcc      ... 4.388
Radial Grid Type                 RadialGrid  ... OptM3 with GC (2021)
Angular Grid (max. ang.)         AngularGrid ... 4 (Lebedev-302)
Angular grid pruning method      GridPruning ... 4 (adaptive)
Weight generation scheme         WeightScheme... mBecke (2022)
Basis function cutoff            BFCut       ... 1.0000e-10
Integration weight cutoff        WCut        ... 1.0000e-14
Partially contracted basis set               ... off
Rotationally invariant grid construction     ... off
Angular grids for H and He will be reduced by one unit
Core-polarized basis detected: some atoms will have their core
                               angular grid increased.
Steep s-basis detected: some atoms will have their radial
                        grid points doubled.

Total number of grid points                  ...    73094
Total number of batches                      ...     1147
Average number of points per batch           ...       63
Average number of grid points per atom       ...    10442
Initializing poperty integral containers    ... done (  0.0 sec)

SHARK setup successfully completed in   3.9 seconds

Maximum memory used throughout the entire STARTUP-calculation: 104.4 MB
------------------------------------------------------------------------------
                          ORCA RELATIVISTIC HAMILTONIAN
------------------------------------------------------------------------------

Relativistic Method            ... DKH
Order of DKH treatment         ...   2
Treatment of potential         ... V(e,N)
Eps parameter for DKH          ...   0.00000000010000
Nucleus model                  ... Point Nucleus
Speed of light used            ... 137.03598950000000


            ************************************************
            *        DOUGLAS-KROLL-HESS HAMILTONIAN        *
            *   Programmed by FN according to literature   *
            *        procedures. Special thanks to         *
            *       B.A. Hess, M. Reiher and A. Wolf       *
            *     University Erlangen-Nuernberg/Bonn       *
            ************************************************

Uncontracting the basis (first version)        ... done
Number of contracted basis functions           ...  342
Number of uncontracted basis functions         ...  551
Initializing the DKH file                      ... done
Calculating the relativistic integrals         ... done
Storing DKH matrices                           ... done
Code used for DKH trafo                        ... ORCA
Computing the DKH transformation               ... done
Storing the transformation variables           ... done
Transforming V and pVp to p**2 space           ... done
First transformation of V and pVp              ... done
Second transformation of Veff                  ... done
Adding kinetic energy                          ... done
Back transformation of Veff to r-space         ... done
Recovering DKH matrices                        ... done
Recontracting the H-matrix (first version)     ... done
Computing the DKH correction to the H-matrix   ... done
Reading the original H-matrix                  ... done
Adding DKH correction to the H-matrix          ... done
Storing the new modified H-matrix              ... done

Maximum memory used throughout the entire REL-calculation: 42.6 MB

------------------------------------------------------------------------------
                         ORCA PROPERTY INTEGRAL CALCULATIONS
------------------------------------------------------------------------------

GBWName                                   ... mol.gbw
Number of atoms                           ...      7
Number of basis functions                 ...    342
Max core memory                           ...   1024 MB

Dipole integrals                          ... YES
Quadrupole integrals                      ...  NO
Linear Momentum integrals                 ...  NO
Angular Momentum integrals                ...  NO
Higher Moments length integrals           ...  NO
Higher Moments velocity integrals         ...  NO
Kinetic energy integrals                  ...  NO
GIAO Right Hand Sides                     ...  NO
SOC integrals                             ...  NO
EPR diamagnetic integrals (GIAO)          ...  NO
EPR gauge integrals                       ...  NO
Field gradient integrals                  ...  NO (   0 nuclei)
Spin-dipole/Fermi contact integrals       ...  NO (   0 nuclei)
Nucleus-orbit integrals                   ...  NO (   0 nuclei)
Geometric perturbations                   ...  NO (   7 nuclei)
Electric origin: ( -0.0000, -0.0000, -0.0000) 
Magnetic origin: (  0.0000,  0.0000,  0.0000) 

Calculating integrals                     ... Electric Dipole (Length)     done (  0.0 sec)

Property integrals calculated in   0.0 sec

Maximum memory used throughout the entire PROPINT-calculation: 42.7 MB
-------------------------------------------------------------------------------
                                 ORCA SCF
-------------------------------------------------------------------------------

------------
SCF SETTINGS
------------
Hamiltonian:
 Ab initio Hamiltonian  Method          .... Hartree-Fock(GTOs)

Relativistic Settings:
 Scalar relativistic method             .... Douglas-Kroll-Hess
 Order of DKH procedure    Order        ....    2
 Mode of DKH-treatment                  .... V=V(e,N)
 Speed of light used       Velit        ....       137.035989
 Cutoff-constant           Eps          ....            1e-10 


General Settings:
 Integral files         IntName         .... mol
 Hartree-Fock type      HFTyp           .... CASSCF
 Total Charge           Charge          ....   -3
 Multiplicity           Mult            ....    4
 Number of Electrons    NEL             ....  173
 Basis Dimension        Dim             ....  342
 Nuclear Repulsion      ENuc            ....   1969.3752282724 Eh


Diagonalization of the overlap matrix:
Smallest eigenvalue                        ... 6.253e-04
Time for diagonalization                   ...    0.017 sec
Threshold for overlap eigenvalues          ... 1.000e-08
Number of eigenvalues below threshold      ... 0
Time for construction of square roots      ...    0.007 sec
Total time needed                          ...    0.025 sec

---------------------
INITIAL GUESS: MOREAD
---------------------
Guess MOs are being read from file: mergefrag.gbw
Input Geometry matches current geometry (good)
Input basis set matches current basis set (good)
MOs were renormalized
Gram-Schmidt orthogonalization of all MOs with pivot on actives
                      ------------------
                      INITIAL GUESS DONE (   0.3 sec)
                      ------------------


 ... the calculation is a CASSCF calculation -I'm leaving here GOOD LUCK!!!

-------------------------------------------------------------------------------
                              ORCA-CASSCF
-------------------------------------------------------------------------------

ActOrbitals=  5
ActOrbitals=  5, DoAILFT=  1
Setting up the integral package     ... done
Building the CAS space              ... done (35 configurations for Mult=4)
Building the CAS space              ... done (77 configurations for Mult=2)

SYSTEM-SPECIFIC SETTINGS:
Number of active electrons          ...   11
Number of active orbitals           ...    7
Total number of electrons           ...  173
Total number of orbitals            ...  342

Determined orbital ranges:
   Internal       0 -   80 (  81 orbitals)
   Active        81 -   87 (   7 orbitals)
   External      88 -  341 ( 254 orbitals)
Number of rotation parameters      ...  22919

CI-STEP:
CI strategy                         ... General CI
Number of multiplicity blocks       ...    2
BLOCK  0 WEIGHT=   0.5000
  Multiplicity                      ...    4
  #(Configurations)                 ...   35
  #(CSFs)                           ...   35
  #(Roots)                          ...   35
    ROOT=0 WEIGHT=    0.014286
    ROOT=1 WEIGHT=    0.014286
    ROOT=2 WEIGHT=    0.014286
    ROOT=3 WEIGHT=    0.014286
    ROOT=4 WEIGHT=    0.014286
    ROOT=5 WEIGHT=    0.014286
    ROOT=6 WEIGHT=    0.014286
    ROOT=7 WEIGHT=    0.014286
    ROOT=8 WEIGHT=    0.014286
    ROOT=9 WEIGHT=    0.014286
    ROOT=10 WEIGHT=    0.014286
    ROOT=11 WEIGHT=    0.014286
    ROOT=12 WEIGHT=    0.014286
    ROOT=13 WEIGHT=    0.014286
    ROOT=14 WEIGHT=    0.014286
    ROOT=15 WEIGHT=    0.014286
    ROOT=16 WEIGHT=    0.014286
    ROOT=17 WEIGHT=    0.014286
    ROOT=18 WEIGHT=    0.014286
    ROOT=19 WEIGHT=    0.014286
    ROOT=20 WEIGHT=    0.014286
    ROOT=21 WEIGHT=    0.014286
    ROOT=22 WEIGHT=    0.014286
    ROOT=23 WEIGHT=    0.014286
    ROOT=24 WEIGHT=    0.014286
    ROOT=25 WEIGHT=    0.014286
    ROOT=26 WEIGHT=    0.014286
    ROOT=27 WEIGHT=    0.014286
    ROOT=28 WEIGHT=    0.014286
    ROOT=29 WEIGHT=    0.014286
    ROOT=30 WEIGHT=    0.014286
    ROOT=31 WEIGHT=    0.014286
    ROOT=32 WEIGHT=    0.014286
    ROOT=33 WEIGHT=    0.014286
    ROOT=34 WEIGHT=    0.014286

BLOCK  1 WEIGHT=   0.5000
  Multiplicity                      ...    2
  #(Configurations)                 ...   77
  #(CSFs)                           ...  112
  #(Roots)                          ...  112
    ROOT=0 WEIGHT=    0.004464
    ROOT=1 WEIGHT=    0.004464
    ROOT=2 WEIGHT=    0.004464
    ROOT=3 WEIGHT=    0.004464
    ROOT=4 WEIGHT=    0.004464
    ROOT=5 WEIGHT=    0.004464
    ROOT=6 WEIGHT=    0.004464
    ROOT=7 WEIGHT=    0.004464
    ROOT=8 WEIGHT=    0.004464
    ROOT=9 WEIGHT=    0.004464
    ROOT=10 WEIGHT=    0.004464
    ROOT=11 WEIGHT=    0.004464
    ROOT=12 WEIGHT=    0.004464
    ROOT=13 WEIGHT=    0.004464
    ROOT=14 WEIGHT=    0.004464
    ROOT=15 WEIGHT=    0.004464
    ROOT=16 WEIGHT=    0.004464
    ROOT=17 WEIGHT=    0.004464
    ROOT=18 WEIGHT=    0.004464
    ROOT=19 WEIGHT=    0.004464
    ROOT=20 WEIGHT=    0.004464
    ROOT=21 WEIGHT=    0.004464
    ROOT=22 WEIGHT=    0.004464
    ROOT=23 WEIGHT=    0.004464
    ROOT=24 WEIGHT=    0.004464
    ROOT=25 WEIGHT=    0.004464
    ROOT=26 WEIGHT=    0.004464
    ROOT=27 WEIGHT=    0.004464
    ROOT=28 WEIGHT=    0.004464
    ROOT=29 WEIGHT=    0.004464
    ROOT=30 WEIGHT=    0.004464
    ROOT=31 WEIGHT=    0.004464
    ROOT=32 WEIGHT=    0.004464
    ROOT=33 WEIGHT=    0.004464
    ROOT=34 WEIGHT=    0.004464
    ROOT=35 WEIGHT=    0.004464
    ROOT=36 WEIGHT=    0.004464
    ROOT=37 WEIGHT=    0.004464
    ROOT=38 WEIGHT=    0.004464
    ROOT=39 WEIGHT=    0.004464
    ROOT=40 WEIGHT=    0.004464
    ROOT=41 WEIGHT=    0.004464
    ROOT=42 WEIGHT=    0.004464
    ROOT=43 WEIGHT=    0.004464
    ROOT=44 WEIGHT=    0.004464
    ROOT=45 WEIGHT=    0.004464
    ROOT=46 WEIGHT=    0.004464
    ROOT=47 WEIGHT=    0.004464
    ROOT=48 WEIGHT=    0.004464
    ROOT=49 WEIGHT=    0.004464
    ROOT=50 WEIGHT=    0.004464
    ROOT=51 WEIGHT=    0.004464
    ROOT=52 WEIGHT=    0.004464
    ROOT=53 WEIGHT=    0.004464
    ROOT=54 WEIGHT=    0.004464
    ROOT=55 WEIGHT=    0.004464
    ROOT=56 WEIGHT=    0.004464
    ROOT=57 WEIGHT=    0.004464
    ROOT=58 WEIGHT=    0.004464
    ROOT=59 WEIGHT=    0.004464
    ROOT=60 WEIGHT=    0.004464
    ROOT=61 WEIGHT=    0.004464
    ROOT=62 WEIGHT=    0.004464
    ROOT=63 WEIGHT=    0.004464
    ROOT=64 WEIGHT=    0.004464
    ROOT=65 WEIGHT=    0.004464
    ROOT=66 WEIGHT=    0.004464
    ROOT=67 WEIGHT=    0.004464
    ROOT=68 WEIGHT=    0.004464
    ROOT=69 WEIGHT=    0.004464
    ROOT=70 WEIGHT=    0.004464
    ROOT=71 WEIGHT=    0.004464
    ROOT=72 WEIGHT=    0.004464
    ROOT=73 WEIGHT=    0.004464
    ROOT=74 WEIGHT=    0.004464
    ROOT=75 WEIGHT=    0.004464
    ROOT=76 WEIGHT=    0.004464
    ROOT=77 WEIGHT=    0.004464
    ROOT=78 WEIGHT=    0.004464
    ROOT=79 WEIGHT=    0.004464
    ROOT=80 WEIGHT=    0.004464
    ROOT=81 WEIGHT=    0.004464
    ROOT=82 WEIGHT=    0.004464
    ROOT=83 WEIGHT=    0.004464
    ROOT=84 WEIGHT=    0.004464
    ROOT=85 WEIGHT=    0.004464
    ROOT=86 WEIGHT=    0.004464
    ROOT=87 WEIGHT=    0.004464
    ROOT=88 WEIGHT=    0.004464
    ROOT=89 WEIGHT=    0.004464
    ROOT=90 WEIGHT=    0.004464
    ROOT=91 WEIGHT=    0.004464
    ROOT=92 WEIGHT=    0.004464
    ROOT=93 WEIGHT=    0.004464
    ROOT=94 WEIGHT=    0.004464
    ROOT=95 WEIGHT=    0.004464
    ROOT=96 WEIGHT=    0.004464
    ROOT=97 WEIGHT=    0.004464
    ROOT=98 WEIGHT=    0.004464
    ROOT=99 WEIGHT=    0.004464
    ROOT=100 WEIGHT=    0.004464
    ROOT=101 WEIGHT=    0.004464
    ROOT=102 WEIGHT=    0.004464
    ROOT=103 WEIGHT=    0.004464
    ROOT=104 WEIGHT=    0.004464
    ROOT=105 WEIGHT=    0.004464
    ROOT=106 WEIGHT=    0.004464
    ROOT=107 WEIGHT=    0.004464
    ROOT=108 WEIGHT=    0.004464
    ROOT=109 WEIGHT=    0.004464
    ROOT=110 WEIGHT=    0.004464
    ROOT=111 WEIGHT=    0.004464

  PrintLevel                        ...    1
  N(GuessMat)                       ...       512
  MaxDim(CI)                        ...        10
  MaxIter(CI)                       ...        64
  Energy Tolerance CI               ...  1.00e-08
  Residual Tolerance CI             ...  1.00e-08
  Shift(CI)                         ...  1.00e-04

INTEGRAL-TRANSFORMATION-STEP:
  Algorithm                         ... EXACT

ORBITAL-IMPROVEMENT-STEP:
  Algorithm                         ... SuperCI(PT)
  Default Parametrization           ... CAYLEY
  Act-Act rotations                 ... depends on algorithm used

  Note: SuperCI(PT) will ignore FreezeIE, FreezeAct and FreezeGrad. In general Default settings are encouraged.
        In conjunction with ShiftUp, ShiftDn or GradScaling the performance of SuperCI(PT) is less optimal.  

  MaxRot                            ... 2.00e-01 
  Max. no of vectors (DIIS)         ... 15
  DThresh (cut-off) metric          ... 1.00e-06
  Switch step at gradient           ...  3.00e-02 
  Switch step at iteration          ...        50   
  Switch step to                    ... SuperCI(PT)    

SCF-SETTINGS:
  Incremental                       ... on
  RIJCOSX approximation             ... off
  RI-JK approximation               ... off
  AO integral handling              ... DIRECT
  Integral Neglect Thresh           ...  1.00e-10
  Primitive cutoff TCut             ...  1.00e-11
  Energy convergence tolerance      ...  1.00e-07
  Orbital gradient convergence      ...  1.00e-03
  Max. number of iterations         ...        75  


PROPERTIES-SETTINGS:
  Spin orbit coupling               ... true

FINAL ORBITALS:
  Active   Orbitals                 ... f-orbitals 
  Internal Orbitals                 ... canonical 
  External Orbitals                 ... canonical 

------------------
CAS-SCF ITERATIONS
------------------


MACRO-ITERATION   1: 
   --- Inactive Energy E0 = -15762.08257543 Eh
CI-ITERATION   0: 
-15836.478848743   0.000000000015 (    0.00)
-15836.478716660   0.000000000015
-15836.478715594   0.000000000022
-15836.478712190   0.000000000019
-15836.478622673   0.000000000023
-15836.478618887   0.000000000027
-15836.478260402   0.000000000025
-15836.478259043   0.000000000013
-15836.478257779   0.000000000024
-15836.478212554   0.000000000014
-15836.478212129   0.000000000014
-15836.478210692   0.000000000015
-15836.478208692   0.000000000020
-15836.396566105   0.000000000019
-15836.396565070   0.000000000018
-15836.396561115   0.000000000031
-15836.396330146   0.000000000016
-15836.396199811   0.000000000016
-15836.396198752   0.000000000015
-15836.396198499   0.000000000032
-15836.395975951   0.000000000015
-15836.349882689   0.000000000018
-15836.349882410   0.000000000030
-15836.349880950   0.000000000024
-15836.349434940   0.000000000027
-15836.349430915   0.000000000013
-15836.349114543   0.000000000021
-15836.349113367   0.000000000031
-15836.349113272   0.000000000015
-15836.348660340   0.000000000017
-15836.267559482   0.000000000020
-15836.267558139   0.000000000018
-15836.267554003   0.000000000018
-15836.266834092   0.000000000009
-15836.266823029   0.000000000011
   CI-PROBLEM SOLVED
   DENSITIES MADE
CI-ITERATION   0: 
-15836.397761689   0.000000000022 (    0.02)
-15836.397761637   0.000000000033
-15836.397761326   0.000000000030
-15836.397752779   0.000000000029
-15836.397752714   0.000000000024
-15836.397752381   0.000000000030
-15836.397705647   0.000000000043
-15836.397705011   0.000000000039
-15836.397704885   0.000000000032
-15836.397704486   0.000000000024
-15836.397704386   0.000000000034
-15836.371037744   0.000000000026
-15836.371037516   0.000000000023
-15836.371036849   0.000000000025
-15836.370958393   0.000000000026
-15836.370956715   0.000000000041
-15836.370927177   0.000000000025
-15836.370924389   0.000000000037
-15836.370923468   0.000000000024
-15836.370888307   0.000000000025
-15836.356940638   0.000000000028
-15836.356937318   0.000000000043
-15836.356935859   0.000000000029
-15836.356891010   0.000000000018
-15836.356887002   0.000000000029
-15836.356886068   0.000000000032
-15836.356599299   0.000000000022
-15836.356464170   0.000000000022
-15836.356463074   0.000000000023
-15836.356459695   0.000000000030
-15836.356397124   0.000000000029
-15836.356395142   0.000000000041
-15836.356306128   0.000000000028
-15836.356305167   0.000000000032
-15836.356304843   0.000000000025
-15836.329571686   0.000000000026
-15836.329568245   0.000000000021
-15836.329566990   0.000000000024
-15836.329451784   0.000000000022
-15836.329446896   0.000000000024
-15836.329080006   0.000000000023
-15836.329079147   0.000000000025
-15836.329076901   0.000000000025
-15836.280751673   0.000000000046
-15836.280688927   0.000000000022
-15836.280688861   0.000000000032
-15836.280687804   0.000000000021
-15836.280645939   0.000000000031
-15836.280643430   0.000000000036
-15836.280642654   0.000000000029
-15836.280240157   0.000000000026
-15836.280239031   0.000000000027
-15836.280237674   0.000000000025
-15836.280237573   0.000000000026
-15836.280234276   0.000000000019
-15836.280233349   0.000000000023
-15836.276451388   0.000000000035
-15836.276441921   0.000000000022
-15836.276438546   0.000000000026
-15836.276427909   0.000000000023
-15836.276425621   0.000000000029
-15836.276417123   0.000000000022
-15836.276404830   0.000000000023
-15836.276400818   0.000000000024
-15836.276399492   0.000000000025
-15836.276303703   0.000000000033
-15836.276302112   0.000000000028
-15836.276301795   0.000000000030
-15836.276257670   0.000000000026
-15836.276253808   0.000000000029
-15836.276243939   0.000000000028
-15836.276243487   0.000000000032
-15836.276241944   0.000000000023
-15836.252340899   0.000000000027
-15836.252340401   0.000000000028
-15836.252338684   0.000000000026
-15836.252329883   0.000000000037
-15836.252327000   0.000000000023
-15836.252159844   0.000000000021
-15836.252158568   0.000000000032
-15836.252158045   0.000000000028
-15836.252110144   0.000000000022
-15836.252108991   0.000000000018
-15836.252108635   0.000000000021
-15836.246590744   0.000000000028
-15836.246585429   0.000000000020
-15836.246225633   0.000000000021
-15836.246224117   0.000000000022
-15836.246219317   0.000000000030
-15836.204459712   0.000000000021
-15836.204459049   0.000000000033
-15836.204458919   0.000000000025
-15836.204439889   0.000000000019
-15836.204438319   0.000000000023
-15836.204437997   0.000000000018
-15836.204302677   0.000000000035
-15836.129758086   0.000000000022
-15836.129756684   0.000000000033
-15836.129734674   0.000000000018
-15836.129733622   0.000000000024
-15836.129733415   0.000000000019
-15836.129703452   0.000000000021
-15836.129701922   0.000000000029
-15836.129697511   0.000000000018
-15836.129621307   0.000000000021
-15835.978912216   0.000000000027
-15835.978378376   0.000000000019
-15835.978377857   0.000000000022
-15835.978375680   0.000000000018
-15835.978079242   0.000000000018
-15835.978071167   0.000000000019
-15835.978068645   0.000000000023
   CI-PROBLEM SOLVED
   DENSITIES MADE

                 <<<<<<<<<<<<<<<<<<INITIAL CI STATE CHECK>>>>>>>>>>>>>>>>>>

BLOCK  0 MULT= 4 NROOTS=35 
ROOT   0:  E=  -15836.4788487430 Eh
      0.31369 [    21]: 2121221
      0.31228 [    26]: 2211212
      0.19030 [    15]: 2111222
      0.08157 [     7]: 1212212
      0.08020 [     4]: 1122221
      0.02190 [    33]: 2221211
ROOT   1:  E=  -15836.4787166600 Eh  0.004 eV     29.0 cm**-1
      0.23691 [    17]: 2112212
      0.18466 [    19]: 2121122
      0.15909 [    11]: 1221221
      0.15841 [     5]: 1211222
      0.09534 [    12]: 1222112
      0.08146 [    24]: 2122211
      0.06091 [    31]: 2221112
      0.02319 [     2]: 1122122
ROOT   2:  E=  -15836.4787155939 Eh  0.004 eV     29.2 cm**-1
      0.31145 [    20]: 2121212
      0.31040 [    27]: 2211221
      0.17376 [    23]: 2122121
      0.17299 [    28]: 2212112
      0.01302 [    16]: 2112122
      0.00527 [     3]: 1122212
      0.00511 [     8]: 1212221
ROOT   3:  E=  -15836.4787121899 Eh  0.004 eV     30.0 cm**-1
      0.23556 [    18]: 2112221
      0.18334 [    25]: 2211122
      0.15930 [    10]: 1221212
      0.15735 [     1]: 1121222
      0.09358 [    13]: 1222121
      0.08086 [    30]: 2212211
      0.06058 [    32]: 2221121
      0.02300 [     6]: 1212122
ROOT   4:  E=  -15836.4786226734 Eh  0.006 eV     49.6 cm**-1
      0.48012 [    22]: 2122112
      0.17317 [     9]: 1221122
      0.07632 [    29]: 2212121
      0.06511 [     7]: 1212212
      0.05458 [    26]: 2211212
      0.05415 [    14]: 1222211
      0.05389 [    15]: 2111222
      0.01705 [    21]: 2121221
      0.01669 [     0]: 1112222
      0.00596 [    33]: 2221211
      0.00294 [     4]: 1122221
ROOT   5:  E=  -15836.4786188871 Eh  0.006 eV     50.4 cm**-1
      0.40988 [    29]: 2212121
      0.31316 [     9]: 1221122
      0.09791 [    14]: 1222211
      0.06360 [     4]: 1122221
      0.04008 [    21]: 2121221
      0.03119 [    15]: 2111222
      0.03018 [     0]: 1112222
      0.00653 [    22]: 2122112
      0.00370 [    26]: 2211212
      0.00345 [    33]: 2221211
ROOT   6:  E=  -15836.4782604021 Eh  0.016 eV    129.1 cm**-1
      0.18736 [    10]: 1221212
      0.17361 [    18]: 2112221
      0.11205 [     3]: 1122212
      0.10698 [     8]: 1212221
      0.06994 [    28]: 2212112
      0.06730 [    20]: 2121212
      0.06536 [    27]: 2211221
      0.06418 [    23]: 2122121
      0.04407 [    32]: 2221121
      0.04391 [     6]: 1212122
      0.02769 [    13]: 1222121
      0.02624 [    25]: 2211122
      0.01127 [    30]: 2212211
ROOT   7:  E=  -15836.4782590432 Eh  0.016 eV    129.4 cm**-1
      0.35716 [    11]: 1221221
      0.34405 [    17]: 2112212
      0.08772 [     2]: 1122122
      0.08734 [    31]: 2221112
      0.05289 [    19]: 2121122
      0.04809 [    12]: 1222112
      0.02272 [    24]: 2122211
ROOT   8:  E=  -15836.4782577791 Eh  0.016 eV    129.7 cm**-1
      0.17553 [    10]: 1221212
      0.16538 [    18]: 2112221
      0.11742 [     3]: 1122212
      0.11439 [     8]: 1212221
      0.07259 [    28]: 2212112
      0.07086 [    20]: 2121212
      0.06956 [    27]: 2211221
      0.06932 [    23]: 2122121
      0.04203 [     6]: 1212122
      0.04198 [    32]: 2221121
      0.02525 [    25]: 2211122
      0.02482 [    13]: 1222121
      0.01085 [    30]: 2212211
ROOT   9:  E=  -15836.4782125539 Eh  0.017 eV    139.6 cm**-1
      0.48319 [    12]: 1222112
      0.14957 [    11]: 1221221
      0.12628 [    17]: 2112212
      0.04289 [     2]: 1122122
      0.03402 [    19]: 2121122
      0.03201 [    31]: 2221112
      0.02313 [     4]: 1122221
      0.02288 [     7]: 1212212
      0.02151 [    26]: 2211212
      0.02122 [    21]: 2121221
      0.01483 [    24]: 2122211
      0.00844 [    29]: 2212121
      0.00800 [     9]: 1221122
      0.00796 [    22]: 2122112
ROOT  10:  E=  -15836.4782121289 Eh  0.017 eV    139.7 cm**-1
      0.21677 [    16]: 2112122
      0.15992 [    23]: 2122121
      0.15399 [    28]: 2212112
      0.09816 [     8]: 1212221
      0.09369 [    13]: 1222121
      0.09226 [     3]: 1122212
      0.04303 [    27]: 2211221
      0.03999 [    20]: 2121212
      0.02884 [    10]: 1221212
      0.02511 [    18]: 2112221
      0.02374 [    34]: 2222111
      0.00844 [     6]: 1212122
      0.00664 [    25]: 2211122
      0.00637 [    32]: 2221121
      0.00290 [    30]: 2212211
ROOT  11:  E=  -15836.4782106920 Eh  0.017 eV    140.0 cm**-1
      0.44970 [    13]: 1222121
      0.13348 [    10]: 1221212
      0.12285 [    18]: 2112221
      0.04496 [    16]: 2112122
      0.04191 [     6]: 1212122
      0.03412 [    23]: 2122121
      0.03336 [    25]: 2211122
      0.03175 [    28]: 2212112
      0.03114 [    32]: 2221121
      0.02094 [     8]: 1212221
      0.01859 [     3]: 1122212
      0.01454 [    30]: 2212211
      0.00903 [    27]: 2211221
      0.00783 [    20]: 2121212
      0.00492 [    34]: 2222111
ROOT  12:  E=  -15836.4782086919 Eh  0.017 eV    140.5 cm**-1
      0.17426 [     7]: 1212212
      0.17422 [     4]: 1122221
      0.16252 [    21]: 2121221
      0.16249 [    26]: 2211212
      0.06341 [    12]: 1222112
      0.06194 [     9]: 1221122
      0.06170 [    22]: 2122112
      0.06162 [    29]: 2212121
      0.01978 [    11]: 1221221
      0.01854 [    14]: 1222211
      0.01680 [    17]: 2112212
      0.00637 [     0]: 1112222
      0.00563 [     2]: 1122122
      0.00442 [    19]: 2121122
      0.00426 [    31]: 2221112
ROOT  13:  E=  -15836.3965661050 Eh  2.239 eV  18059.0 cm**-1
      0.15654 [    17]: 2112212
      0.15574 [    31]: 2221112
      0.15567 [     2]: 1122122
      0.15412 [     5]: 1211222
      0.09558 [    11]: 1221221
      0.09458 [    12]: 1222112
      0.09457 [    19]: 2121122
      0.09314 [    24]: 2122211
ROOT  14:  E=  -15836.3965650697 Eh  2.239 eV  18059.2 cm**-1
      0.23962 [    23]: 2122121
      0.23955 [    28]: 2212112
      0.23902 [    20]: 2121212
      0.23901 [    27]: 2211221
      0.00670 [    18]: 2112221
      0.00667 [     6]: 1212122
      0.00666 [    32]: 2221121
      0.00660 [     1]: 1121222
      0.00407 [    10]: 1221212
      0.00403 [    25]: 2211122
      0.00403 [    13]: 1222121
      0.00397 [    30]: 2212211
ROOT  15:  E=  -15836.3965611153 Eh  2.239 eV  18060.0 cm**-1
      0.15088 [    18]: 2112221
      0.15007 [     6]: 1212122
      0.15005 [    32]: 2221121
      0.14854 [     1]: 1121222
      0.09049 [    10]: 1221212
      0.08954 [    25]: 2211122
      0.08954 [    13]: 1222121
      0.08816 [    30]: 2212211
      0.01069 [    28]: 2212112
      0.01069 [    23]: 2122121
      0.01067 [    27]: 2211221
      0.01066 [    20]: 2121212
ROOT  16:  E=  -15836.3963301459 Eh  2.245 eV  18110.7 cm**-1
      0.14655 [    29]: 2212121
      0.14655 [     9]: 1221122
      0.14654 [    22]: 2122112
      0.14146 [    21]: 2121221
      0.14145 [    26]: 2211212
      0.13939 [     0]: 1112222
      0.13804 [    14]: 1222211
ROOT  17:  E=  -15836.3961998115 Eh  2.249 eV  18139.3 cm**-1
      0.15717 [    10]: 1221212
      0.15628 [    25]: 2211122
      0.15557 [    13]: 1222121
      0.15110 [    30]: 2212211
      0.09550 [    32]: 2221121
      0.09509 [    18]: 2112221
      0.09076 [     6]: 1212122
      0.08905 [     1]: 1121222
ROOT  18:  E=  -15836.3961987518 Eh  2.249 eV  18139.6 cm**-1
      0.25075 [    16]: 2112122
      0.24465 [     3]: 1122212
      0.24458 [     8]: 1212221
      0.24419 [    34]: 2222111
ROOT  19:  E=  -15836.3961984992 Eh  2.249 eV  18139.6 cm**-1
      0.15665 [    11]: 1221221
      0.15579 [    19]: 2121122
      0.15502 [    12]: 1222112
      0.15065 [    24]: 2122211
      0.09675 [    31]: 2221112
      0.09638 [    17]: 2112212
      0.09209 [     2]: 1122122
      0.09029 [     5]: 1211222
ROOT  20:  E=  -15836.3959759514 Eh  2.255 eV  18188.5 cm**-1
      0.25224 [     4]: 1122221
      0.25219 [     7]: 1212212
      0.24889 [    33]: 2221211
      0.24665 [    15]: 2111222
ROOT  21:  E=  -15836.3498826893 Eh  3.509 eV  28304.8 cm**-1
      0.33793 [    16]: 2112122
      0.17770 [    34]: 2222111
      0.13855 [    32]: 2221121
      0.09685 [     6]: 1212122
      0.04732 [    27]: 2211221
      0.04697 [    20]: 2121212
      0.04677 [    23]: 2122121
      0.04651 [    28]: 2212112
      0.01979 [     1]: 1121222
      0.01606 [    30]: 2212211
      0.00772 [     8]: 1212221
      0.00752 [     3]: 1122212
      0.00547 [    18]: 2112221
ROOT  22:  E=  -15836.3498824101 Eh  3.509 eV  28304.8 cm**-1
      0.49278 [    31]: 2221112
      0.34362 [     2]: 1122122
      0.07079 [     5]: 1211222
      0.05652 [    24]: 2122211
      0.01945 [    17]: 2112212
      0.00567 [    11]: 1221221
      0.00556 [    19]: 2121122
      0.00551 [    12]: 1222112
ROOT  23:  E=  -15836.3498809496 Eh  3.509 eV  28305.2 cm**-1
      0.35388 [    32]: 2221121
      0.24709 [     6]: 1212122
      0.13240 [    16]: 2112122
      0.06962 [    34]: 2222111
      0.05069 [     1]: 1121222
      0.04083 [    30]: 2212211
      0.01850 [    27]: 2211221
      0.01844 [    20]: 2121212
      0.01829 [    23]: 2122121
      0.01826 [    28]: 2212112
      0.01397 [    18]: 2112221
      0.00409 [    10]: 1221212
      0.00401 [    25]: 2211122
      0.00396 [    13]: 1222121
      0.00300 [     8]: 1212221
      0.00297 [     3]: 1122212
ROOT  24:  E=  -15836.3494349397 Eh  3.522 eV  28403.0 cm**-1
      0.31135 [    15]: 2111222
      0.17901 [    26]: 2211212
      0.15905 [    33]: 2221211
      0.09952 [     7]: 1212212
      0.08481 [    22]: 2122112
      0.06777 [    14]: 1222211
      0.03021 [     0]: 1112222
      0.02979 [     9]: 1221122
      0.02442 [     4]: 1122221
      0.01392 [    29]: 2212121
ROOT  25:  E=  -15836.3494309152 Eh  3.522 eV  28403.9 cm**-1
      0.20033 [    21]: 2121221
      0.16661 [    15]: 2111222
      0.14462 [     4]: 1122221
      0.12707 [    14]: 1222211
      0.08506 [    33]: 2221211
      0.07168 [    29]: 2212121
      0.06962 [     7]: 1212212
      0.05662 [     0]: 1112222
      0.05587 [     9]: 1221122
      0.02150 [    26]: 2211212
ROOT  26:  E=  -15836.3491145433 Eh  3.530 eV  28473.4 cm**-1
      0.34122 [    30]: 2212211
      0.30581 [     1]: 1121222
      0.06196 [    32]: 2221121
      0.06174 [     6]: 1212122
      0.03820 [    10]: 1221212
      0.03709 [    13]: 1222121
      0.03709 [    25]: 2211122
      0.03140 [     3]: 1122212
      0.03135 [     8]: 1212221
      0.01304 [    20]: 2121212
      0.01296 [    27]: 2211221
      0.01281 [    28]: 2212112
      0.01273 [    23]: 2122121
      0.00261 [    18]: 2112221
ROOT  27:  E=  -15836.3491133674 Eh  3.530 eV  28473.6 cm**-1
      0.24321 [     3]: 1122212
      0.24304 [     8]: 1212221
      0.10087 [    20]: 2121212
      0.10058 [    27]: 2211221
      0.09908 [    28]: 2212112
      0.09876 [    23]: 2122121
      0.04405 [    30]: 2212211
      0.03942 [     1]: 1121222
      0.00800 [     6]: 1212122
      0.00795 [    32]: 2221121
      0.00493 [    10]: 1221212
      0.00479 [    13]: 1222121
      0.00479 [    25]: 2211122
ROOT  28:  E=  -15836.3491132716 Eh  3.530 eV  28473.6 cm**-1
      0.38550 [    24]: 2122211
      0.34482 [     5]: 1211222
      0.07004 [     2]: 1122122
      0.06949 [    31]: 2221112
      0.04317 [    11]: 1221221
      0.04193 [    19]: 2121122
      0.04191 [    12]: 1222112
      0.00293 [    17]: 2112212
ROOT  29:  E=  -15836.3486603396 Eh  3.543 eV  28573.1 cm**-1
      0.27864 [    14]: 1222211
      0.12429 [     0]: 1112222
      0.11701 [    29]: 2212121
      0.11694 [     9]: 1221122
      0.11676 [    22]: 2122112
      0.11522 [     4]: 1122221
      0.11513 [     7]: 1212212
      0.00804 [    21]: 2121221
      0.00798 [    26]: 2211212
ROOT  30:  E=  -15836.2675594820 Eh  5.749 eV  46372.6 cm**-1
      0.42511 [    19]: 2121122
      0.19219 [    24]: 2122211
      0.17994 [     5]: 1211222
      0.17849 [     2]: 1122122
      0.01230 [    11]: 1221221
      0.01193 [    12]: 1222112
ROOT  31:  E=  -15836.2675581390 Eh  5.750 eV  46372.9 cm**-1
      0.46721 [    34]: 2222111
      0.11890 [     8]: 1212221
      0.11886 [     3]: 1122212
      0.07045 [    27]: 2211221
      0.07043 [    20]: 2121212
      0.06956 [    23]: 2122121
      0.06954 [    28]: 2212112
      0.00638 [    25]: 2211122
      0.00288 [    30]: 2212211
      0.00270 [     1]: 1121222
      0.00268 [     6]: 1212122
ROOT  32:  E=  -15836.2675540032 Eh  5.750 eV  46373.8 cm**-1
      0.41877 [    25]: 2211122
      0.18932 [    30]: 2212211
      0.17719 [     1]: 1121222
      0.17584 [     6]: 1212122
      0.01211 [    10]: 1221212
      0.01175 [    13]: 1222121
      0.00712 [    34]: 2222111
ROOT  33:  E=  -15836.2668340920 Eh  5.769 eV  46531.8 cm**-1
      0.30572 [    33]: 2221211
      0.21276 [     0]: 1112222
      0.09408 [    21]: 2121221
      0.09327 [    22]: 2122112
      0.07701 [     7]: 1212212
      0.07699 [    14]: 1222211
      0.07646 [     4]: 1122221
      0.03379 [     9]: 1221122
      0.01513 [    26]: 2211212
      0.01478 [    29]: 2212121
ROOT  34:  E=  -15836.2668230294 Eh  5.770 eV  46534.3 cm**-1
      0.38267 [     0]: 1112222
      0.16996 [    33]: 2221211
      0.13850 [    14]: 1222211
      0.08034 [    26]: 2211212
      0.07977 [    29]: 2212121
      0.06077 [     9]: 1221122
      0.04293 [     4]: 1122221
      0.04241 [     7]: 1212212

BLOCK  1 MULT= 2 NROOTS=112 
ROOT   0:  E=  -15836.3977616891 Eh
      0.21030 [    20]: 1221221
      0.16921 [    35]: 2112212
      0.12692 [    38]: 2121122
      0.06334 [    22]: 1222112
      0.04240 [    58]: 2212202
      0.03617 [    55]: 2212022
      0.03124 [    10]: 1122212
      0.03108 [    16]: 1212221
      0.02407 [    71]: 2222021
      0.02365 [    56]: 2212112
      0.02353 [    54]: 2211221
      0.02277 [    43]: 2122121
      0.02240 [    39]: 2121212
      0.02158 [    60]: 2212220
      0.01832 [    27]: 2012222
      0.01620 [    64]: 2221022
      0.01536 [     5]: 0222221
      0.01489 [    13]: 1211222
      0.01167 [    45]: 2122211
      0.01022 [    50]: 2202221
      0.00917 [    65]: 2221112
      0.00897 [     9]: 1122122
      0.00894 [    73]: 2222111
      0.00853 [     2]: 0221222
      0.00666 [    28]: 2021222
      0.00560 [    47]: 2201222
      0.00381 [    69]: 2221220
      0.00376 [    67]: 2221202
ROOT   1:  E=  -15836.3977616373 Eh  0.000 eV      0.0 cm**-1
      0.11398 [    10]: 1122212
      0.11336 [    16]: 1212221
      0.08651 [    56]: 2212112
      0.08607 [    54]: 2211221
      0.08288 [    43]: 2122121
      0.08149 [    39]: 2121212
      0.05910 [    64]: 2221022
      0.05631 [    20]: 1221221
      0.04538 [    35]: 2112212
      0.03405 [    38]: 2121122
      0.03263 [    73]: 2222111
      0.03112 [     2]: 0221222
      0.02456 [    28]: 2021222
      0.02018 [    47]: 2201222
      0.01695 [    22]: 1222112
      0.01390 [    69]: 2221220
      0.01370 [    67]: 2221202
      0.01138 [    58]: 2212202
      0.00965 [    55]: 2212022
      0.00650 [    71]: 2222021
      0.00580 [    60]: 2212220
      0.00570 [     6]: 1022222
      0.00505 [    12]: 1202222
      0.00492 [    27]: 2012222
      0.00417 [    19]: 1221212
      0.00416 [     5]: 0222221
      0.00401 [    13]: 1211222
      0.00333 [    36]: 2112221
      0.00313 [    45]: 2122211
      0.00273 [    50]: 2202221
      0.00270 [    34]: 2112122
ROOT   2:  E=  -15836.3977613258 Eh  0.000 eV      0.1 cm**-1
      0.26628 [    19]: 1221212
      0.21405 [    36]: 2112221
      0.15789 [    52]: 2211122
      0.08120 [    23]: 1222121
      0.05061 [    46]: 2122220
      0.04734 [    41]: 2122022
      0.02798 [    70]: 2222012
      0.02443 [    44]: 2122202
      0.02143 [    32]: 2102222
      0.01778 [     4]: 0222212
      0.01739 [     8]: 1121222
      0.01524 [    30]: 2022212
      0.01391 [    59]: 2212211
      0.01070 [    66]: 2221121
      0.01051 [    14]: 1212122
      0.00396 [    49]: 2202212
ROOT   3:  E=  -15836.3977527788 Eh  0.000 eV      2.0 cm**-1
      0.25415 [    22]: 1222112
      0.11516 [    31]: 2022221
      0.10736 [    51]: 2210222
      0.08517 [    20]: 1221221
      0.07995 [    35]: 2112212
      0.07316 [    38]: 2121122
      0.07092 [    50]: 2202221
      0.03918 [    60]: 2212220
      0.03131 [    71]: 2222021
      0.02575 [     5]: 0222221
      0.02207 [    55]: 2212022
      0.01557 [    58]: 2212202
      0.01439 [    27]: 2012222
      0.01352 [    13]: 1211222
      0.01222 [    45]: 2122211
      0.00963 [    65]: 2221112
      0.00668 [     9]: 1122122
      0.00649 [    63]: 2220221
ROOT   4:  E=  -15836.3977527141 Eh  0.000 eV      2.0 cm**-1
      0.12439 [    43]: 2122121
      0.11979 [    56]: 2212112
      0.11640 [    26]: 1222220
      0.11636 [    24]: 1222202
      0.10772 [    17]: 1220222
      0.09171 [    34]: 2112122
      0.06377 [    39]: 2121212
      0.05824 [    54]: 2211221
      0.05182 [    21]: 1222022
      0.04844 [    47]: 2201222
      0.04303 [    28]: 2021222
      0.00593 [    23]: 1222121
      0.00540 [    16]: 1212221
      0.00481 [    10]: 1122212
      0.00459 [    12]: 1202222
      0.00417 [    22]: 1222112
      0.00378 [     6]: 1022222
      0.00265 [    49]: 2202212
ROOT   5:  E=  -15836.3977523815 Eh  0.000 eV      2.0 cm**-1
      0.25115 [    23]: 1222121
      0.11297 [    49]: 2202212
      0.10647 [    37]: 2120222
      0.08093 [    19]: 1221212
      0.07596 [    36]: 2112221
      0.07411 [    52]: 2211122
      0.06852 [    30]: 2022212
      0.04160 [    44]: 2122202
      0.03300 [    70]: 2222012
      0.02670 [     4]: 0222212
      0.01933 [    41]: 2122022
      0.01785 [    46]: 2122220
      0.01580 [    32]: 2102222
      0.01465 [     8]: 1121222
      0.01285 [    59]: 2212211
      0.01028 [    66]: 2221121
      0.00735 [    14]: 1212122
      0.00650 [    62]: 2220212
      0.00290 [    43]: 2122121
      0.00282 [    56]: 2212112
      0.00277 [    26]: 1222220
      0.00277 [    24]: 1222202
      0.00253 [    17]: 1220222
ROOT   6:  E=  -15836.3977056472 Eh  0.002 eV     12.3 cm**-1
      0.17016 [    11]: 1122221
      0.13137 [    42]: 2122112
      0.13132 [    15]: 1212212
      0.13112 [    53]: 2211212
      0.09849 [    57]: 2212121
      0.09634 [    40]: 2121221
      0.05826 [    18]: 1221122
      0.05018 [    61]: 2220122
      0.02807 [    68]: 2221211
      0.02635 [     3]: 0222122
      0.02132 [    48]: 2202122
      0.01858 [    72]: 2222102
      0.01640 [    29]: 2022122
      0.00926 [     7]: 1112222
      0.00578 [    74]: 2222120
      0.00273 [    33]: 2111222
ROOT   7:  E=  -15836.3977050107 Eh  0.002 eV     12.4 cm**-1
      0.16957 [    15]: 1212212
      0.13434 [    57]: 2212121
      0.13404 [    40]: 2121221
      0.13131 [    11]: 1122221
      0.10590 [    18]: 1221122
      0.10208 [    42]: 2122112
      0.09981 [    53]: 2211212
      0.02672 [    61]: 2220122
      0.01704 [    68]: 2221211
      0.01403 [     3]: 0222122
      0.01395 [    74]: 2222120
      0.01256 [    29]: 2022122
      0.00771 [    48]: 2202122
      0.00535 [    36]: 2112221
      0.00493 [     7]: 1112222
      0.00284 [     4]: 0222212
ROOT   8:  E=  -15836.3977048846 Eh  0.002 eV     12.5 cm**-1
      0.27041 [    36]: 2112221
      0.14352 [     4]: 0222212
      0.12011 [    62]: 2220212
      0.08549 [    52]: 2211122
      0.06727 [    70]: 2222012
      0.04643 [    23]: 1222121
      0.04042 [    41]: 2122022
      0.03293 [    19]: 1221212
      0.03289 [    30]: 2022212
      0.03141 [    66]: 2221121
      0.02064 [    14]: 1212122
      0.01976 [    44]: 2122202
      0.01677 [    46]: 2122220
      0.01143 [    32]: 2102222
      0.00696 [     8]: 1121222
      0.00593 [    59]: 2212211
      0.00356 [    54]: 2211221
      0.00356 [    39]: 2121212
      0.00346 [    10]: 1122212
      0.00346 [    16]: 1212221
      0.00328 [    15]: 1212212
      0.00311 [    37]: 2120222
      0.00260 [    57]: 2212121
      0.00259 [    40]: 2121221
      0.00254 [    11]: 1122221
      0.00250 [    21]: 1222022
ROOT   9:  E=  -15836.3977044857 Eh  0.002 eV     12.6 cm**-1
      0.15464 [    39]: 2121212
      0.15451 [    54]: 2211221
      0.14803 [    16]: 1212221
      0.14788 [    10]: 1122212
      0.10893 [    21]: 1222022
      0.09089 [    56]: 2212112
      0.09070 [    43]: 2122121
      0.05389 [    17]: 1220222
      0.00642 [    36]: 2112221
      0.00488 [    73]: 2222111
      0.00358 [    24]: 1222202
      0.00357 [    26]: 1222220
      0.00341 [     4]: 0222212
      0.00295 [    28]: 2021222
      0.00287 [    47]: 2201222
      0.00285 [    62]: 2220212
ROOT  10:  E=  -15836.3977043863 Eh  0.002 eV     12.6 cm**-1
      0.27787 [    35]: 2112212
      0.14756 [     5]: 0222221
      0.12362 [    63]: 2220221
      0.08890 [    38]: 2121122
      0.06907 [    71]: 2222021
      0.04871 [    22]: 1222112
      0.04122 [    55]: 2212022
      0.03441 [    50]: 2202221
      0.03382 [    20]: 1221221
      0.03233 [    65]: 2221112
      0.02130 [     9]: 1122122
      0.02053 [    60]: 2212220
      0.01733 [    58]: 2212202
      0.01184 [    27]: 2012222
      0.00719 [    13]: 1211222
      0.00614 [    45]: 2122211
      0.00304 [    51]: 2210222
      0.00251 [    75]: 2222201
ROOT  11:  E=  -15836.3710377444 Eh  0.727 eV   5865.2 cm**-1
      0.24241 [    35]: 2112212
      0.13466 [     5]: 0222221
      0.10241 [    63]: 2220221
      0.09188 [    55]: 2212022
      0.07889 [    38]: 2121122
      0.07590 [    65]: 2221112
      0.05452 [    71]: 2222021
      0.04828 [    13]: 1211222
      0.04366 [    31]: 2022221
      0.03544 [     9]: 1122122
      0.02168 [    22]: 1222112
      0.01941 [    20]: 1221221
      0.01778 [    45]: 2122211
      0.00905 [    51]: 2210222
      0.00759 [    75]: 2222201
      0.00652 [    60]: 2212220
      0.00413 [    58]: 2212202
      0.00377 [    50]: 2202221
ROOT  12:  E=  -15836.3710375155 Eh  0.727 eV   5865.3 cm**-1
      0.17520 [    10]: 1122212
      0.17350 [    16]: 1212221
      0.14585 [    64]: 2221022
      0.08518 [    43]: 2122121
      0.08401 [    56]: 2212112
      0.07465 [    54]: 2211221
      0.07355 [    39]: 2121212
      0.05532 [    67]: 2221202
      0.05507 [    69]: 2221220
      0.03677 [    34]: 2112122
      0.01025 [     2]: 0221222
      0.00968 [    47]: 2201222
      0.00926 [    28]: 2021222
      0.00518 [    73]: 2222111
ROOT  13:  E=  -15836.3710368490 Eh  0.727 eV   5865.4 cm**-1
      0.24207 [    36]: 2112221
      0.13463 [     4]: 0222212
      0.10194 [    62]: 2220212
      0.09099 [    41]: 2122022
      0.07888 [    52]: 2211122
      0.07570 [    66]: 2221121
      0.05483 [    70]: 2222012
      0.04814 [     8]: 1121222
      0.04326 [    49]: 2202212
      0.03549 [    14]: 1212122
      0.02111 [    23]: 1222121
      0.01889 [    19]: 1221212
      0.01731 [    59]: 2212211
      0.00931 [    37]: 2120222
      0.00758 [    76]: 2222210
      0.00637 [    44]: 2122202
      0.00400 [    46]: 2122220
      0.00388 [    30]: 2022212
ROOT  14:  E=  -15836.3709583930 Eh  0.729 eV   5882.6 cm**-1
      0.21408 [    15]: 1212212
      0.14484 [    40]: 2121221
      0.11518 [    57]: 2212121
      0.09379 [    61]: 2220122
      0.08095 [    11]: 1122221
      0.05992 [    29]: 2022122
      0.05052 [    18]: 1221122
      0.04727 [    42]: 2122112
      0.04648 [    72]: 2222102
      0.04085 [    25]: 1222211
      0.03036 [    53]: 2211212
      0.02797 [    74]: 2222120
      0.02507 [    33]: 2111222
      0.00808 [    48]: 2202122
      0.00614 [     3]: 0222122
      0.00478 [    68]: 2221211
      0.00371 [     7]: 1112222
ROOT  15:  E=  -15836.3709567151 Eh  0.729 eV   5883.0 cm**-1
      0.19711 [    11]: 1122221
      0.15396 [    53]: 2211212
      0.11081 [    42]: 2122112
      0.09980 [    18]: 1221122
      0.08317 [    48]: 2202122
      0.06849 [    25]: 1222211
      0.05796 [    15]: 1212212
      0.04934 [    61]: 2220122
      0.03706 [    40]: 2121221
      0.03705 [    57]: 2212121
      0.03098 [    29]: 2022122
      0.03014 [    74]: 2222120
      0.02109 [    33]: 2111222
      0.01083 [    72]: 2222102
      0.00456 [     7]: 1112222
      0.00443 [    68]: 2221211
      0.00323 [     3]: 0222122
ROOT  16:  E=  -15836.3709271766 Eh  0.730 eV   5889.5 cm**-1
      0.15004 [    23]: 1222121
      0.13397 [    19]: 1221212
      0.12617 [    59]: 2212211
      0.11311 [    37]: 2120222
      0.10288 [    36]: 2112221
      0.06265 [    70]: 2222012
      0.05957 [    30]: 2022212
      0.04659 [    66]: 2221121
      0.03783 [    41]: 2122022
      0.03580 [    44]: 2122202
      0.03511 [    46]: 2122220
      0.02127 [     4]: 0222212
      0.02124 [    49]: 2202212
      0.01964 [    14]: 1212122
      0.01105 [     0]: 0122222
      0.01048 [    52]: 2211122
      0.00784 [     8]: 1121222
ROOT  17:  E=  -15836.3709243889 Eh  0.730 eV   5890.1 cm**-1
      0.17744 [    16]: 1212221
      0.17573 [    10]: 1122212
      0.11586 [    34]: 2112122
      0.10041 [    21]: 1222022
      0.09532 [    17]: 1220222
      0.05710 [    28]: 2021222
      0.05670 [    47]: 2201222
      0.05299 [    56]: 2212112
      0.05228 [    39]: 2121212
      0.05178 [    43]: 2122121
      0.05121 [    54]: 2211221
      0.00591 [    73]: 2222111
      0.00325 [    69]: 2221220
      0.00301 [    67]: 2221202
ROOT  18:  E=  -15836.3709234678 Eh  0.730 eV   5890.3 cm**-1
      0.14939 [    22]: 1222112
      0.13339 [    20]: 1221221
      0.12567 [    45]: 2122211
      0.11334 [    51]: 2210222
      0.10331 [    35]: 2112212
      0.06314 [    71]: 2222021
      0.05968 [    50]: 2202221
      0.04664 [    65]: 2221112
      0.03728 [    55]: 2212022
      0.03566 [    60]: 2212220
      0.03498 [    58]: 2212202
      0.02174 [     5]: 0222221
      0.02096 [    31]: 2022221
      0.01980 [     9]: 1122122
      0.01100 [     1]: 0212222
      0.01072 [    38]: 2121122
      0.00787 [    13]: 1211222
ROOT  19:  E=  -15836.3708883074 Eh  0.731 eV   5898.0 cm**-1
      0.15489 [    25]: 1222211
      0.14779 [    33]: 2111222
      0.12729 [    18]: 1221122
      0.12671 [    57]: 2212121
      0.12075 [    42]: 2122112
      0.08129 [    15]: 1212212
      0.07656 [    40]: 2121221
      0.07532 [    11]: 1122221
      0.07422 [    53]: 2211212
      0.00763 [     7]: 1112222
ROOT  20:  E=  -15836.3569406379 Eh  1.111 eV   8959.2 cm**-1
      0.11653 [    70]: 2222012
      0.11507 [    66]: 2221121
      0.10248 [    62]: 2220212
      0.09892 [    46]: 2122220
      0.07544 [    41]: 2122022
      0.07133 [     8]: 1121222
      0.06948 [    59]: 2212211
      0.06256 [    14]: 1212122
      0.05023 [    30]: 2022212
      0.04329 [    23]: 1222121
      0.03759 [    52]: 2211122
      0.03267 [    36]: 2112221
      0.02846 [    32]: 2102222
      0.02667 [    44]: 2122202
      0.02631 [     4]: 0222212
      0.02181 [    19]: 1221212
      0.01264 [    37]: 2120222
      0.00426 [     0]: 0122222
      0.00285 [    49]: 2202212
ROOT  21:  E=  -15836.3569373181 Eh  1.111 eV   8959.9 cm**-1
      0.19013 [    21]: 1222022
      0.10096 [    34]: 2112122
      0.08986 [    28]: 2021222
      0.08625 [    43]: 2122121
      0.08075 [    47]: 2201222
      0.07608 [    17]: 1220222
      0.06951 [    56]: 2212112
      0.05132 [    12]: 1202222
      0.04812 [    39]: 2121212
      0.04637 [     6]: 1022222
      0.04624 [    10]: 1122212
      0.03869 [    54]: 2211221
      0.03093 [    16]: 1212221
      0.02038 [    26]: 1222220
      0.01544 [    24]: 1222202
      0.00301 [    73]: 2222111
ROOT  22:  E=  -15836.3569358590 Eh  1.111 eV   8960.2 cm**-1
      0.14432 [    65]: 2221112
      0.13007 [    71]: 2222021
      0.11702 [    63]: 2220221
      0.10444 [    58]: 2212202
      0.08761 [    45]: 2122211
      0.06158 [    55]: 2212022
      0.05777 [    13]: 1211222
      0.05016 [     9]: 1122122
      0.04136 [    50]: 2202221
      0.03568 [    60]: 2212220
      0.03408 [    22]: 1222112
      0.03079 [    38]: 2121122
      0.02762 [    35]: 2112212
      0.02276 [     5]: 0222221
      0.02249 [    27]: 2012222
      0.01723 [    20]: 1221221
      0.00916 [    51]: 2210222
      0.00336 [     1]: 0212222
ROOT  23:  E=  -15836.3568910097 Eh  1.112 eV   8970.1 cm**-1
      0.23834 [    66]: 2221121
      0.12450 [    59]: 2212211
      0.07013 [    44]: 2122202
      0.06886 [     8]: 1121222
      0.06782 [    14]: 1212122
      0.06382 [    41]: 2122022
      0.05480 [    62]: 2220212
      0.05244 [    23]: 1222121
      0.04381 [    70]: 2222012
      0.03857 [    30]: 2022212
      0.03421 [    52]: 2211122
      0.03331 [    32]: 2102222
      0.02838 [    37]: 2120222
      0.02556 [    19]: 1221212
      0.01799 [    36]: 2112221
      0.01230 [    49]: 2202212
      0.00997 [    46]: 2122220
      0.00985 [     4]: 0222212
      0.00512 [     0]: 0122222
ROOT  24:  E=  -15836.3568870023 Eh  1.112 eV   8971.0 cm**-1
      0.25912 [    34]: 2112122
      0.14271 [    16]: 1212221
      0.12782 [    10]: 1122212
      0.10744 [     2]: 0221222
      0.10636 [    64]: 2221022
      0.06897 [    56]: 2212112
      0.05270 [    43]: 2122121
      0.03872 [    54]: 2211221
      0.02854 [    39]: 2121212
      0.01315 [    24]: 1222202
      0.01151 [    47]: 2201222
      0.01109 [    73]: 2222111
      0.00776 [    26]: 1222220
      0.00640 [    67]: 2221202
      0.00614 [     6]: 1022222
      0.00524 [    69]: 2221220
ROOT  25:  E=  -15836.3568860678 Eh  1.112 eV   8971.2 cm**-1
      0.20869 [    65]: 2221112
      0.10676 [    45]: 2122211
      0.08253 [    13]: 1211222
      0.08049 [     9]: 1122122
      0.07750 [    55]: 2212022
      0.06238 [    22]: 1222112
      0.06089 [    60]: 2212220
      0.04738 [    50]: 2202221
      0.04099 [    38]: 2121122
      0.04026 [    63]: 2220221
      0.03947 [    27]: 2012222
      0.03235 [    51]: 2210222
      0.03033 [    71]: 2222021
      0.03031 [    20]: 1221221
      0.02226 [    35]: 2112212
      0.01381 [    31]: 2022221
      0.01279 [     5]: 0222221
      0.00606 [     1]: 0212222
      0.00453 [    58]: 2212202
ROOT  26:  E=  -15836.3565992985 Eh  1.120 eV   9034.1 cm**-1
      0.15076 [    33]: 2111222
      0.14653 [    25]: 1222211
      0.12558 [    42]: 2122112
      0.12158 [    57]: 2212121
      0.07580 [    40]: 2121221
      0.07574 [    11]: 1122221
      0.07527 [    53]: 2211212
      0.07230 [    15]: 1212212
      0.06574 [    61]: 2220122
      0.06490 [     3]: 0222122
      0.00641 [    68]: 2221211
      0.00433 [    29]: 2022122
      0.00413 [    72]: 2222102
      0.00405 [    48]: 2202122
      0.00384 [    74]: 2222120
      0.00305 [     7]: 1112222
ROOT  27:  E=  -15836.3564641703 Eh  1.124 eV   9063.8 cm**-1
      0.18210 [    35]: 2112212
      0.16193 [     5]: 0222221
      0.12454 [    31]: 2022221
      0.09939 [    65]: 2221112
      0.08034 [     9]: 1122122
      0.07450 [    38]: 2121122
      0.06766 [    13]: 1211222
      0.06752 [    51]: 2210222
      0.05131 [    22]: 1222112
      0.03001 [    20]: 1221221
      0.02156 [    58]: 2212202
      0.01212 [    63]: 2220221
      0.00626 [    27]: 2012222
      0.00426 [    60]: 2212220
      0.00400 [    75]: 2222201
      0.00359 [    55]: 2212022
      0.00295 [    45]: 2122211
ROOT  28:  E=  -15836.3564630735 Eh  1.124 eV   9064.0 cm**-1
      0.18199 [    39]: 2121212
      0.18023 [    54]: 2211221
      0.14630 [    26]: 1222220
      0.14623 [    24]: 1222202
      0.14367 [    43]: 2122121
      0.14254 [    56]: 2212112
      0.01700 [    34]: 2112122
      0.01131 [    16]: 1212221
      0.01077 [    10]: 1122212
      0.00663 [     2]: 0221222
      0.00555 [    64]: 2221022
ROOT  29:  E=  -15836.3564596948 Eh  1.124 eV   9064.7 cm**-1
      0.18051 [    36]: 2112221
      0.16086 [     4]: 0222212
      0.12386 [    49]: 2202212
      0.09865 [    66]: 2221121
      0.08047 [    14]: 1212122
      0.07421 [    52]: 2211122
      0.06811 [    37]: 2120222
      0.06765 [     8]: 1121222
      0.05090 [    23]: 1222121
      0.02937 [    19]: 1221212
      0.02135 [    46]: 2122220
      0.01202 [    62]: 2220212
      0.00649 [    32]: 2102222
      0.00401 [    44]: 2122202
      0.00397 [    76]: 2222210
      0.00334 [    41]: 2122022
      0.00294 [    59]: 2212211
ROOT  30:  E=  -15836.3563971238 Eh  1.126 eV   9078.5 cm**-1
      0.21180 [    53]: 2211212
      0.20088 [    11]: 1122221
      0.11117 [    25]: 1222211
      0.09922 [    57]: 2212121
      0.08773 [    33]: 2111222
      0.06587 [    15]: 1212212
      0.06255 [    42]: 2122112
      0.03380 [     3]: 0222122
      0.03343 [    40]: 2121221
      0.03172 [    61]: 2220122
      0.02879 [    18]: 1221122
      0.01082 [    68]: 2221211
      0.01007 [    72]: 2222102
      0.00992 [    29]: 2022122
ROOT  31:  E=  -15836.3563951419 Eh  1.126 eV   9078.9 cm**-1
      0.25968 [    15]: 1212212
      0.19419 [    40]: 2121221
      0.12126 [    11]: 1122221
      0.09509 [    42]: 2122112
      0.06236 [    57]: 2212121
      0.05823 [    33]: 2111222
      0.05721 [    25]: 1222211
      0.05359 [    18]: 1221122
      0.01915 [     3]: 0222122
      0.01800 [    61]: 2220122
      0.01632 [    53]: 2211212
      0.01553 [    68]: 2221211
      0.01243 [    74]: 2222120
      0.01180 [    48]: 2202122
ROOT  32:  E=  -15836.3563061279 Eh  1.128 eV   9098.4 cm**-1
      0.26041 [    19]: 1221212
      0.22079 [    36]: 2112221
      0.17591 [    23]: 1222121
      0.06965 [    30]: 2022212
      0.06648 [    59]: 2212211
      0.04180 [    44]: 2122202
      0.03385 [    37]: 2120222
      0.02449 [    14]: 1212122
      0.02105 [     8]: 1121222
      0.02059 [    49]: 2202212
      0.01616 [    46]: 2122220
      0.01423 [     4]: 0222212
      0.00967 [    52]: 2211122
      0.00948 [    66]: 2221121
      0.00915 [    32]: 2102222
ROOT  33:  E=  -15836.3563051674 Eh  1.128 eV   9098.7 cm**-1
      0.21678 [    10]: 1122212
      0.21665 [    16]: 1212221
      0.11146 [    17]: 1220222
      0.09624 [    54]: 2211221
      0.09524 [    39]: 2121212
      0.07719 [    34]: 2112122
      0.06355 [    56]: 2212112
      0.06199 [    43]: 2122121
      0.01677 [    73]: 2222111
      0.00885 [    69]: 2221220
      0.00885 [    67]: 2221202
      0.00867 [     6]: 1022222
      0.00866 [    12]: 1202222
      0.00313 [    26]: 1222220
      0.00274 [    24]: 1222202
ROOT  34:  E=  -15836.3563048428 Eh  1.128 eV   9098.7 cm**-1
      0.25996 [    20]: 1221221
      0.22110 [    35]: 2112212
      0.17519 [    22]: 1222112
      0.06975 [    50]: 2202221
      0.06619 [    45]: 2122211
      0.04183 [    60]: 2212220
      0.03433 [    51]: 2210222
      0.02489 [     9]: 1122122
      0.02136 [    13]: 1211222
      0.02013 [    31]: 2022221
      0.01606 [    58]: 2212202
      0.01466 [     5]: 0222221
      0.00983 [    38]: 2121122
      0.00976 [    65]: 2221112
      0.00924 [    27]: 2012222
ROOT  35:  E=  -15836.3295716857 Eh  1.856 eV  14966.0 cm**-1
      0.13313 [    23]: 1222121
      0.13121 [    19]: 1221212
      0.08704 [    59]: 2212211
      0.07920 [    66]: 2221121
      0.07720 [    36]: 2112221
      0.06531 [    41]: 2122022
      0.06466 [    37]: 2120222
      0.06120 [    46]: 2122220
      0.06103 [    44]: 2122202
      0.04015 [    62]: 2220212
      0.03906 [    70]: 2222012
      0.03760 [    49]: 2202212
      0.03675 [    30]: 2022212
      0.02530 [    14]: 1212122
      0.02479 [     8]: 1121222
      0.01591 [    52]: 2211122
      0.01116 [     0]: 0122222
      0.00870 [    32]: 2102222
ROOT  36:  E=  -15836.3295682447 Eh  1.856 eV  14966.7 cm**-1
      0.15542 [    34]: 2112122
      0.12370 [    16]: 1212221
      0.12367 [    10]: 1122212
      0.10435 [    64]: 2221022
      0.09774 [     2]: 0221222
      0.06110 [     6]: 1022222
      0.06057 [    12]: 1202222
      0.04145 [    43]: 2122121
      0.04086 [    56]: 2212112
      0.03988 [    39]: 2121212
      0.03935 [    54]: 2211221
      0.02434 [    28]: 2021222
      0.02433 [    47]: 2201222
      0.02333 [    67]: 2221202
      0.02333 [    69]: 2221220
      0.01575 [    73]: 2222111
ROOT  37:  E=  -15836.3295669901 Eh  1.856 eV  14967.0 cm**-1
      0.13293 [    22]: 1222112
      0.13102 [    20]: 1221221
      0.08802 [    45]: 2122211
      0.07989 [    65]: 2221112
      0.07655 [    35]: 2112212
      0.06499 [    55]: 2212022
      0.06436 [    51]: 2210222
      0.06154 [    58]: 2212202
      0.06138 [    60]: 2212220
      0.04051 [    63]: 2220221
      0.03941 [    71]: 2222021
      0.03729 [    31]: 2022221
      0.03642 [    50]: 2202221
      0.02529 [     9]: 1122122
      0.02479 [    13]: 1211222
      0.01551 [    38]: 2121122
      0.01088 [     1]: 0212222
      0.00895 [    27]: 2012222
ROOT  38:  E=  -15836.3294517838 Eh  1.859 eV  14992.3 cm**-1
      0.18091 [    42]: 2122112
      0.18063 [    40]: 2121221
      0.17617 [    25]: 1222211
      0.05858 [    33]: 2111222
      0.05676 [    53]: 2211212
      0.05523 [    57]: 2212121
      0.04814 [    11]: 1122221
      0.04746 [     7]: 1112222
      0.04462 [    15]: 1212212
      0.03869 [    61]: 2220122
      0.03718 [     3]: 0222122
      0.03236 [    18]: 1221122
      0.01004 [    29]: 2022122
      0.00931 [    74]: 2222120
      0.00885 [    48]: 2202122
      0.00883 [    72]: 2222102
      0.00623 [    68]: 2221211
ROOT  39:  E=  -15836.3294468955 Eh  1.859 eV  14993.4 cm**-1
      0.14964 [    57]: 2212121
      0.14847 [    53]: 2211212
      0.10557 [    25]: 1222211
      0.09777 [    33]: 2111222
      0.07915 [    15]: 1212212
      0.07699 [     7]: 1112222
      0.07562 [    11]: 1122221
      0.06457 [    61]: 2220122
      0.06206 [     3]: 0222122
      0.02463 [    40]: 2121221
      0.02396 [    42]: 2122112
      0.01940 [    18]: 1221122
      0.01635 [    48]: 2202122
      0.01537 [    72]: 2222102
      0.01516 [    29]: 2022122
      0.01489 [    74]: 2222120
      0.01039 [    68]: 2221211
ROOT  40:  E=  -15836.3290800060 Eh  1.869 eV  15073.9 cm**-1
      0.10805 [    38]: 2121122
      0.10734 [    20]: 1221221
[...]
   AI-Root 100: E(AI)=    9.454 eV -> LF-Root 100:     9.452 eV    S= 0.992 Delta=    0.002 eV
   AI-Root 101: E(AI)=    9.454 eV -> LF-Root 101:     9.452 eV    S= 0.991 Delta=    0.002 eV
   AI-Root 102: E(AI)=    9.454 eV -> LF-Root 102:     9.452 eV    S= 0.998 Delta=    0.002 eV
   AI-Root 103: E(AI)=    9.456 eV -> LF-Root 103:     9.455 eV    S= 0.999 Delta=    0.001 eV
   AI-Root 104: E(AI)=    9.456 eV -> LF-Root 104:     9.455 eV    S= 0.998 Delta=    0.001 eV
   AI-Root 105: E(AI)=   13.527 eV -> LF-Root 105:    13.527 eV    S= 1.000 Delta=    0.000 eV
   AI-Root 106: E(AI)=   13.528 eV -> LF-Root 106:    13.528 eV    S= 1.000 Delta=    0.000 eV
   AI-Root 107: E(AI)=   13.528 eV -> LF-Root 107:    13.528 eV    S= 1.000 Delta=    0.000 eV
   AI-Root 108: E(AI)=   13.539 eV -> LF-Root 108:    13.539 eV    S= 1.000 Delta=    0.000 eV
   AI-Root 109: E(AI)=   13.539 eV -> LF-Root 109:    13.539 eV    S= 1.000 Delta=    0.000 eV
   AI-Root 110: E(AI)=   13.540 eV -> LF-Root 110:    13.539 eV    S= 1.000 Delta=    0.000 eV
   AI-Root 111: E(AI)=   13.563 eV -> LF-Root 111:    13.561 eV    S= 1.000 Delta=    0.002 eV
   RMS error for this block =     0.003 eV =      23.8 cm**-1 

Total RMS error g=     0.003 eV =      22.4 cm**-1
Note: Dropped RMS error for the reference energy.

Confidence intervals (95%) computed from the square root of the
diagonal elements of the covariance matrix:
H(f0    ,f0    )=  0.000000000 a.u. =     0.000 eV =       0.0 cm**-1
H(f+1   ,f0    )=  0.000000000 a.u. =     0.000 eV =       0.0 cm**-1
H(f+1   ,f+1   )=  0.000000000 a.u. =     0.000 eV =       0.0 cm**-1
H(f-1   ,f0    )=  0.000000000 a.u. =     0.000 eV =       0.0 cm**-1
H(f-1   ,f+1   )=  0.000000000 a.u. =     0.000 eV =       0.0 cm**-1
H(f-1   ,f-1   )=  0.000000000 a.u. =     0.000 eV =       0.0 cm**-1
H(f+2   ,f0    )=  0.000000000 a.u. =     0.000 eV =       0.0 cm**-1
H(f+2   ,f+1   )=  0.000000000 a.u. =     0.000 eV =       0.0 cm**-1
H(f+2   ,f-1   )=  0.000000000 a.u. =     0.000 eV =       0.0 cm**-1
H(f+2   ,f+2   )=  0.000000000 a.u. =     0.000 eV =       0.0 cm**-1
H(f-2   ,f0    )=  0.000000000 a.u. =     0.000 eV =       0.0 cm**-1
H(f-2   ,f+1   )=  0.000000000 a.u. =     0.000 eV =       0.0 cm**-1
H(f-2   ,f-1   )=  0.000000000 a.u. =     0.000 eV =       0.0 cm**-1
H(f-2   ,f+2   )=  0.000000000 a.u. =     0.000 eV =       0.0 cm**-1
H(f-2   ,f-2   )=  0.000000000 a.u. =     0.000 eV =       0.0 cm**-1
H(f+3   ,f0    )=  0.000000000 a.u. =     0.000 eV =       0.0 cm**-1
H(f+3   ,f+1   )=  0.000000000 a.u. =     0.000 eV =       0.0 cm**-1
H(f+3   ,f-1   )=  0.000000000 a.u. =     0.000 eV =       0.0 cm**-1
H(f+3   ,f+2   )=  0.000000000 a.u. =     0.000 eV =       0.0 cm**-1
H(f+3   ,f-2   )=  0.000000000 a.u. =     0.000 eV =       0.0 cm**-1
H(f+3   ,f+3   )=  0.000000000 a.u. =     0.000 eV =       0.0 cm**-1
H(f-3   ,f0    )=  0.000000000 a.u. =     0.000 eV =       0.0 cm**-1
H(f-3   ,f+1   )=  0.000000000 a.u. =     0.000 eV =       0.0 cm**-1
H(f-3   ,f-1   )=  0.000000000 a.u. =     0.000 eV =       0.0 cm**-1
H(f-3   ,f+2   )=  0.000000000 a.u. =     0.000 eV =       0.0 cm**-1
H(f-3   ,f-2   )=  0.000000000 a.u. =     0.000 eV =       0.0 cm**-1
H(f-3   ,f+3   )=  0.000000000 a.u. =     0.000 eV =       0.0 cm**-1
H(f-3   ,f-3   )=  0.000000000 a.u. =     0.000 eV =       0.0 cm**-1
F2ff      =  0.000000000 a.u. =     0.000 eV =       0.0 cm**-1
F4ff      =  0.000000000 a.u. =     0.000 eV =       0.0 cm**-1
F6ff      =  0.000000000 a.u. =     0.000 eV =       0.0 cm**-1
Pearson's correlation coefficient =    1.000 (should be close to 1)

----------------------------------------------
SPIN ORBIT COUPLING (based on CASSCF orbitals)
----------------------------------------------

AI-SOC-X integrals (cm-1)
                  0          1          2          3          4          5    
      0      -0.000000   0.000000 5270.680928   0.000000   0.006022  -0.000000
      1      -0.000000  -0.000000   0.005725   0.000000 3405.007174   0.000000
      2     -5270.680928  -0.005725   0.000000 -3403.410344   0.000000   0.001082
      3      -0.000000  -0.000000 3403.410344   0.000000   0.007372  -0.000000
      4      -0.006022 -3405.007174  -0.000000  -0.007372  -0.000000 2636.066239
      5       0.000000  -0.000000  -0.001082   0.000000 -2636.066239   0.000000
      6      -2.727979  -0.005641   0.000002 2637.986406  -0.000000  -0.004878
                  6    
      0       2.727979
      1       0.005641
      2      -0.000002
      3     -2637.986406
      4       0.000000
      5       0.004878
      6       0.000000
AI-SOC-Y integrals (cm-1)
                  0          1          2          3          4          5    
      0       0.000000 -5270.721062  -0.000000  -0.009905  -0.000000   2.690316
      1     5270.721062   0.000000   0.000000 -3403.414535  -0.000000   0.025334
      2       0.000000  -0.000000  -0.000000  -0.000000 -3405.019672  -0.000001
      3       0.009905 3403.414535   0.000000  -0.000000  -0.000001 2637.979761
      4       0.000000   0.000000 3405.019672   0.000001   0.000000   0.000000
      5      -2.690316  -0.025334   0.000001 -2637.979761  -0.000000   0.000000
      6      -0.000000  -0.000000  -0.005208  -0.000000 -2636.054275   0.000000
                  6    
      0       0.000000
      1       0.000000
      2       0.005208
      3       0.000000
      4     2636.054275
      5      -0.000000
      6      -0.000000
AI-SOC-Z integrals (cm-1)
                  0          1          2          3          4          5    
      0      -0.000000   0.000000  -0.002413  -0.000000   0.005390  -0.000000
      1      -0.000000  -0.000000 -2155.132606  -0.000000  -0.004115   0.000000
      2       0.002413 2155.132606  -0.000000  -0.003403  -0.000000   4.722069
      3       0.000000   0.000000   0.003403   0.000000 -4306.150960   0.000000
      4      -0.005390   0.004115   0.000000 4306.150960   0.000000  -0.016043
      5       0.000000  -0.000000  -4.722069  -0.000000   0.016043  -0.000000
      6      -0.010322  -4.688497  -0.000000   0.005086  -0.000000 6455.845237
                  6    
      0       0.010322
      1       4.688497
      2       0.000000
      3      -0.005086
      4       0.000000
      5     -6455.845237
      6      -0.000000

Fit to the SOC matrix elements
a = 42.000000
b =    11.209 eV =   90404.9 cm**-1
SOC constant zeta =     0.267 eV =    2152.5 cm**-1


LF-SOC-X integrals (cm-1)
                  0          1          2          3          4          5    
      0       0.000000  -0.000000 5272.519343  -0.000000  -0.000000  -0.000000
      1       0.000000   0.000000  -0.000000  -0.000000 3403.396602  -0.000000
      2     -5272.519343   0.000000   0.000000 -3403.396602  -0.000000  -0.000000
      3       0.000000   0.000000 3403.396602   0.000000  -0.000000  -0.000000
      4       0.000000 -3403.396602   0.000000   0.000000   0.000000 2636.259672
      5       0.000000   0.000000   0.000000   0.000000 -2636.259672   0.000000
      6       0.000000   0.000000   0.000000 2636.259672   0.000000   0.000000
                  6    
      0      -0.000000
      1      -0.000000
      2      -0.000000
      3     -2636.259672
      4      -0.000000
      5      -0.000000
      6       0.000000
LF-SOC-Y integrals (cm-1)
                  0          1          2          3          4          5    
      0       0.000000 -5272.519343  -0.000000  -0.000000  -0.000000  -0.000000
      1     5272.519343   0.000000  -0.000000 -3403.396602  -0.000000  -0.000000
      2       0.000000   0.000000   0.000000  -0.000000 -3403.396602  -0.000000
      3       0.000000 3403.396602   0.000000   0.000000  -0.000000 2636.259672
      4       0.000000   0.000000 3403.396602   0.000000   0.000000  -0.000000
      5       0.000000   0.000000   0.000000 -2636.259672   0.000000   0.000000
      6       0.000000   0.000000   0.000000   0.000000 -2636.259672   0.000000
                  6    
      0      -0.000000
      1      -0.000000
      2      -0.000000
      3      -0.000000
      4     2636.259672
      5      -0.000000
      6       0.000000
LF-SOC-Z integrals (cm-1)
                  0          1          2          3          4          5    
      0       0.000000  -0.000000  -0.000000  -0.000000  -0.000000  -0.000000
      1       0.000000   0.000000 -2152.497008  -0.000000  -0.000000  -0.000000
      2       0.000000 2152.497008   0.000000  -0.000000  -0.000000  -0.000000
      3       0.000000   0.000000   0.000000   0.000000 -4304.994017  -0.000000
      4       0.000000   0.000000   0.000000 4304.994017   0.000000  -0.000000
      5       0.000000   0.000000   0.000000   0.000000   0.000000   0.000000
      6       0.000000   0.000000   0.000000   0.000000   0.000000 6457.491025
                  6    
      0      -0.000000
      1      -0.000000
      2      -0.000000
      3      -0.000000
      4      -0.000000
      5     -6457.491025
      6       0.000000

RMS error of nonzero matrix elements =    2.3 cm**-1


-----SOC-CONSTANTS-----
---All Values in cm-1---
ZETA_F = 2152.50 
------------------------




---AILFT COMPLETED SUCCESFULLY!---
-------------------------------------------------------------------------------
                     ORCA-AILFT TERMINATED SUCCESFULLY
-------------------------------------------------------------------------------


--------------
CASSCF TIMINGS
--------------

Total time                       ...     7240.4 sec
Sum of individual times          ...     7823.9 sec (108.1%)

Calculation of AO operators
   F(Core) operator              ...      730.2 sec ( 10.1%)
   G(Act) operator               ...      736.7 sec ( 10.2%)
Calculation of MO transformed quantities
   J(MO) operators               ...     5140.5 sec ( 71.0%)
   AO->MO one electron integrals ...        0.6 sec (  0.0%)
Configuration interaction steps
   CI-setup phase                ...        0.0 sec (  0.0%)
   CI-solution phase             ...       16.2 sec (  0.2%)
   Generation of densities       ...        3.2 sec (  0.0%)
Orbital improvement steps
   Orbital gradient              ...        0.2 sec (  0.0%)
   O(1) converger                ...        2.5 sec (  0.0%)
CPCM steps
   Total CPCM time               ...        0.1 sec (  0.0%)
Properties                       ...      597.4 sec (  8.3%)
   SOC integral calculation      ...      592.2 sec (  8.2%)
   SSC RMEs (incl. integrals)    ...        0.0 sec (  0.0%)
   SOC RMEs                      ...        4.2 sec (  0.1%)

Maximum memory used throughout the entire CASSCF-calculation: 264.0 MB

------------------------------------------------------------------------------
                         ORCA PROPERTY INTEGRAL CALCULATIONS
------------------------------------------------------------------------------

GBWName                                   ... mol.gbw
Number of atoms                           ...      7
Number of basis functions                 ...    342
Max core memory                           ...   1024 MB

Dipole integrals                          ... YES
Quadrupole integrals                      ...  NO
Linear Momentum integrals                 ...  NO
Angular Momentum integrals                ...  NO
Higher Moments length integrals           ...  NO
Higher Moments velocity integrals         ...  NO
Kinetic energy integrals                  ...  NO
GIAO Right Hand Sides                     ...  NO
SOC integrals                             ...  NO
EPR diamagnetic integrals (GIAO)          ...  NO
EPR gauge integrals                       ...  NO
Field gradient integrals                  ...  NO (   0 nuclei)
Spin-dipole/Fermi contact integrals       ...  NO (   0 nuclei)
Nucleus-orbit integrals                   ...  NO (   0 nuclei)
Geometric perturbations                   ...  NO (   7 nuclei)
Electric origin: ( -0.0000, -0.0000, -0.0000) 
Magnetic origin: (  0.0000,  0.0000,  0.0000) 

Calculating integrals                     ... Electric Dipole (Length)     done (  0.0 sec)

Property integrals calculated in   0.0 sec

Maximum memory used throughout the entire PROPINT-calculation: 43.6 MB

-------------------------   --------------------
FINAL SINGLE POINT ENERGY    -15836.901739409337
-------------------------   --------------------


                            ***************************************
                            *     ORCA property calculations      *
                            ***************************************

                                    ---------------------
                                    Active property flags
                                    ---------------------
   (+) Dipole Moment


------------------------------------------------------------------------------
                       ORCA ELECTRIC PROPERTIES CALCULATION
------------------------------------------------------------------------------

Dipole Moment Calculation                       ... ON
Quadrupole Moment Calculation                   ... OFF
Polarizability Calculation                      ... OFF
Atomic Dipole Moment Calculation                ... OFF
Atomic Quadrupole Moment Calculation            ... OFF
Atomic Polarizability Calculation               ... OFF
Relativistic picture-change correction          ... OFF
GBWName                                         ... mol.gbw
Electron density                                ... mol.scfp

The origin for moment calculation is the CENTER OF MASS  = (-0.000002, -0.000000 -0.000001)

-------------
DIPOLE MOMENT
-------------
                                X             Y             Z
Electronic contribution:     -0.00007      -0.00000      -0.00002
Nuclear contribution   :      0.00005       0.00000       0.00002
                        -----------------------------------------
Total Dipole Moment    :     -0.00002      -0.00000      -0.00001
                        -----------------------------------------
Magnitude (a.u.)       :      0.00002
Magnitude (Debye)      :      0.00006



--------------------
Rotational spectrum 
--------------------
 
Rotational constants in cm-1:     0.017089     0.017060     0.017053 
Rotational constants in MHz :   512.311300   511.438359   511.231946 

 Dipole components along the rotational axes: 
x,y,z [a.u.] :     0.000021     0.000001     0.000007 
x,y,z [Debye]:     0.000053     0.000002     0.000017 

 

--------------------------------
SUGGESTED CITATIONS FOR THIS RUN
--------------------------------

Below you find a list of papers that are relevant to this ORCA run
We neither can nor want to force you to cite these paper, but we appreciate if you do
You receive ORCA, which is the product of a lot of hard work by many enthusiastic individuals, for free
The only thing we kindly ask in return is that you cite our papers,
We deeply appreciate it, if you show your appreciation for ORCA by not just citing the generic ORCA reference.

Please note that relegating all ORCA citations to the supporting information does *not* help us.
SI sections are not indexed - citations you put there will not count into any citation statistics
But we need these citations in order to attract the funding resources that allow us to do what we are doing

Therefore, if you are a happy ORCA user, please consider citing a few of the papers listed below in the main body of your paper

In addition to the list printed below, the program has created the file mol.bibtex that contains the list in bibtex format
You can import this file easily into all common literature databanks and citation aid programs


List of essential papers. We consider these as the minimum necessary citations

  1. Neese,F.
     Software update: the ORCA program system, version 5.0
     WIRES Comput. Molec. Sci., 2022 12(1)e1606
     doi.org/10.1002/wcms.1606

List of papers to cite with high priority. The work reported in these papers was absolutely
necessary for this run to complete.
Our perspective: the developers of density functionals and basis sets usually get cited in chemistry papers
Good! But without the algorithms to do something with them, the functionals or basis sets would not do anything.
Hence, in our opinion, the algorithm design and method developments papers are equally worthy of getting cited

  1. Atanasov,M.; Ganyushin,D.; Sivalingam,K.; Neese,F.
     A Modern First-Principles View on Ligand Field Theory Through the Eyes of Correlated Multireference Wavefunctions
     Struct. Bond., 2012 142 149-220
     doi.org/10.1007/430_2011_57
  2. Stoychev,G.L.; Auer,A.A.; Neese,F.
     Automatic Generation of Auxiliary Basis Sets
     J. Theo. Comp. Chem., 2017 13 554-562
     doi.org/10.1021/acs.jctc.6b01041
  3. Kollmar,C.; Sivalingam,K.; Helmich-Paris,B.; Angeli,C.; Neese,F.
     A perturbation-based super-CI approach for the orbital optimization of a CASSCF wave function
     J. Comput. Chem., 2019 40 1463-1470
     doi.org/10.1002/jcc.25801
  4. Neese,F.
     The SHARK Integral Generation and Digestion System
     J. Comp. Chem., 2022  1-16
     doi.org/10.1002/jcc.26942

List of suggested additional citations. These are papers that are important in the 'surrounding' of 
of this run, or papers that preceded the highly important papers. If you like your results we are grateful for a citation.

  1. Neese,F.
     The ORCA program system
     WIRES Comput. Molec. Sci., 2012 2(1)73-78
     doi.org/10.1002/wcms.81
  2. Aravena,D.; Atanasov,M.; Neese,F.
     Periodic Trends in Lanthanide Compounds through the Eyes of Multireference ab Initio Theory
     Inorg. Chem., 2016 55(9)4457-4469
     doi.org/10.1021/acs.inorgchem.6b00244
  3. Jung,J.L.; Atanasov,M.; Neese,F.
     Ab Initio Ligand-Field Theory Analysis and Covalency Trends in Actinide and Lanthanide Free Ions and Octahedral Complexes
     Inorg. Chem., 2016 56(15)8802-8816
  4. Neese,F.
     Software update: the ORCA program system, version 4.0
     WIRES Comput. Molec. Sci., 2018 8(1)1-6
     doi.org/10.1002/wcms.1327
  5. Neese,F.; Wennmohs,F.; Becker,U.; Riplinger,C.
     The ORCA quantum chemistry program package
     J. Chem. Phys., 2020 152 Art. No. L224108
     doi.org/10.1063/5.0004608

Timings for individual modules:

Sum of individual times         ...     7245.778 sec (= 120.763 min)
GTO integral calculation        ...        3.916 sec (=   0.065 min)   0.1 %
Relativistic integrals          ...        0.706 sec (=   0.012 min)   0.0 %
SCF iterations                  ...        0.393 sec (=   0.007 min)   0.0 %
CASSCF iterations               ...     7240.508 sec (= 120.675 min)  99.9 %
Property integrals              ...        0.256 sec (=   0.004 min)   0.0 %
                             ****ORCA TERMINATED NORMALLY****
TOTAL RUN TIME: 0 days 2 hours 0 minutes 46 seconds 32 msec
'mergefrag.gbw' -> '/csnfs/users/llang/calculations/LFTprogram/ErCl63-/AILFT/mergefrag.gbw'
'mol.CAS_DTensor_HEFF_rotated.xyz' -> '/csnfs/users/llang/calculations/LFTprogram/ErCl63-/AILFT/mol.CAS_DTensor_HEFF_rotated.xyz'
'mol.FAO_CAS' -> '/csnfs/users/llang/calculations/LFTprogram/ErCl63-/AILFT/mol.FAO_CAS'
'mol.bibtex' -> '/csnfs/users/llang/calculations/LFTprogram/ErCl63-/AILFT/mol.bibtex'
'mol.casscf.lft.gbw' -> '/csnfs/users/llang/calculations/LFTprogram/ErCl63-/AILFT/mol.casscf.lft.gbw'
'mol.densities' -> '/csnfs/users/llang/calculations/LFTprogram/ErCl63-/AILFT/mol.densities'
'mol.err' -> '/csnfs/users/llang/calculations/LFTprogram/ErCl63-/AILFT/mol.err'
'mol.fsv' -> '/csnfs/users/llang/calculations/LFTprogram/ErCl63-/AILFT/mol.fsv'
'mol.gbw' -> '/csnfs/users/llang/calculations/LFTprogram/ErCl63-/AILFT/mol.gbw'
'mol.job' -> '/csnfs/users/llang/calculations/LFTprogram/ErCl63-/AILFT/mol.job'
'mol_property.txt' -> '/csnfs/users/llang/calculations/LFTprogram/ErCl63-/AILFT/mol_property.txt'
cp: cannot stat 'mol.asa.inp': No such file or directory
'mol.casscf.lft.inp' -> '/csnfs/users/llang/calculations/LFTprogram/ErCl63-/AILFT/mol.casscf.lft.inp'
