
                                 *****************
                                 * O   R   C   A *
                                 *****************

                                            #,                                       
                                            ###                                      
                                            ####                                     
                                            #####                                    
                                            ######                                   
                                           ########,                                 
                                     ,,################,,,,,                         
                               ,,#################################,,                 
                          ,,##########################################,,             
                       ,#########################################, ''#####,          
                    ,#############################################,,   '####,        
                  ,##################################################,,,,####,       
                ,###########''''           ''''###############################       
              ,#####''   ,,,,##########,,,,          '''####'''          '####       
            ,##' ,,,,###########################,,,                        '##       
           ' ,,###''''                  '''############,,,                           
         ,,##''                                '''############,,,,        ,,,,,,###''
      ,#''                                            '''#######################'''  
     '                                                          ''''####''''         
             ,#######,   #######,   ,#######,      ##                                
            ,#'     '#,  ##    ##  ,#'     '#,    #''#        ,####,   ,####,        
            ##       ##  ##   ,#'  ##            #'  '#       #'       #'  '#        
            ##       ##  #######   ##           ,######,      #####,   #    #        
            '#,     ,#'  ##    ##  '#,     ,#' ,#      #,     #,   #   #,  ,#        
             '#######'   ##     ##  '#######'  #'      '#     '####' # '####'        



                #########################################################
                #                        -***-                          #
                #          Department of theory and spectroscopy        #
                #                                                       #
                #                      Frank Neese                      #
                #                                                       #
                #     Directorship, Architecture, Infrastructure        #
                #                    SHARK, DRIVERS                     #
                #        Core code/Algorithms in most modules           #
                #                                                       #
                #        Max Planck Institute fuer Kohlenforschung      #
                #                Kaiser Wilhelm Platz 1                 #
                #                 D-45470 Muelheim/Ruhr                 #
                #                      Germany                          #
                #                                                       #
                #                  All rights reserved                  #
                #                        -***-                          #
                #########################################################


                         Program Version 6.0.0  -   RELEASE  -


 With contributions from (in alphabetic order):
   Daniel Aravena         : Magnetic Suceptibility
   Michael Atanasov       : Ab Initio Ligand Field Theory (pilot matlab implementation)
   Alexander A. Auer      : GIAO ZORA, VPT2 properties, NMR spectrum
   Ute Becker             : All parallelization in ORCA, NUMFREQ, NUMCALC
   Giovanni Bistoni       : ED, misc. LED, open-shell LED, HFLD
   Martin Brehm           : Molecular dynamics
   Dmytro Bykov           : pre 5.0 version of the SCF Hessian
   Marcos Casanova-Páez   : Triplet and SCS-CIS(D). UHF-(DLPNO)-IP/EA/STEOM-CCSD. UHF-CVS-IP/STEOM-CCSD
   Vijay G. Chilkuri      : MRCI spin determinant printing, contributions to CSF-ICE
   Pauline Colinet        : FMM embedding
   Dipayan Datta          : RHF DLPNO-CCSD density
   Achintya Kumar Dutta   : EOM-CC, STEOM-CC
   Nicolas Foglia         : Exact transition moments, OPA infrastructure, MCD improvements
   Dmitry Ganyushin       : Spin-Orbit,Spin-Spin,Magnetic field MRCI
   Miquel Garcia          : C-PCM and meta-GGA Hessian, CCSD/C-PCM, Gaussian charge scheme
   Tiago L. C. Gouveia    : GS-ROHF, GS-ROCIS
   Yang Guo               : DLPNO-NEVPT2, F12-NEVPT2, CIM, IAO-localization
   Andreas Hansen         : Spin unrestricted coupled pair/coupled cluster methods
   Ingolf Harden          : AUTO-CI MPn and infrastructure 
   Benjamin Helmich-Paris : MC-RPA, TRAH-(SCF,CASSCF), AVAS, COSX integrals, SCF dyn. polar.
   Lee Huntington         : MR-EOM, pCC
   Robert Izsak           : Overlap fitted RIJCOSX, COSX-SCS-MP3, EOM
   Riya Kayal             : Wick's Theorem for AUTO-CI, AUTO-CI UHF-CCSDT
   Emily Kempfer          : AUTO-CI, RHF CISDT and CCSDT
   Christian Kollmar      : KDIIS, OOCD, Brueckner-CCSD(T), CCSD density, CASPT2, CASPT2-K, improved NEVPT2
   Axel Koslowski         : Symmetry handling
   Simone Kossmann        : Meta GGA functionals, TD-DFT gradient, OOMP2, (MP2 Hessian; deprecated post 5.0)
   Lucas Lang             : DCDCAS
   Marvin Lechner         : AUTO-CI (C++ implementation), FIC-MRCC
   Spencer Leger          : CASSCF response
   Dagmar Lenk            : GEPOL surface, SMD, ORCA-2-JSON
   Dimitrios Liakos       : Extrapolation schemes; Compound Job, initial MDCI parallelization
   Dimitrios Manganas     : Further ROCIS development; embedding schemes. LFT, Crystal Embedding
   Dimitrios Pantazis     : SARC Basis sets
   Anastasios Papadopoulos: AUTO-CI, single reference methods and gradients
   Taras Petrenko         : pre 6.0 DFT Hessian and TD-DFT gradient, (ASA, deprecated), ECA, 1-Electron XAS/XES, NRVS
   Peter Pinski           : DLPNO-MP2, DLPNO-MP2 Gradient
   Christoph Reimann      : Effective Core Potentials
   Marius Retegan         : Local ZFS, SOC
   Christoph Riplinger    : Optimizer, TS searches, QM/MM, DLPNO-CCSD(T), (RO)-DLPNO pert. Triples
   Michael Roemelt        : Original ROCIS implementation
   Masaaki Saitow         : Open-shell DLPNO-CCSD energy and density
   Barbara Sandhoefer     : DKH picture change effects
   Kantharuban Sivalingam : CASSCF convergence/infrastructure, NEVPT2 and variants, FIC-MRCI
   Bernardo de Souza      : ESD, SOC TD-DFT
   Georgi Stoychev        : AutoAux, RI-MP2 NMR, DLPNO-MP2 response, X2C
   Van Anh Tran           : RI-MP2 g-tensors
   Willem Van den Heuvel  : Paramagnetic NMR
   Zikuan Wang            : NOTCH, Electric field optimization 
   Frank Wennmohs         : Technical directorship and infrastructure
   Hang Xu                : AUTO-CI-Response properties 


 We gratefully acknowledge several colleagues who have allowed us to
 interface, adapt or use parts of their codes:
   Stefan Grimme, W. Hujo, H. Kruse, P. Pracht,  : VdW corrections, initial TS optimization,
                  C. Bannwarth, S. Ehlert,         DFT functionals, gCP, sTDA/sTD-DF
                  L. Wittmann, M. Mueller
   Ed Valeev, F. Pavosevic, A. Kumar             : LibInt (2-el integral package), F12 methods
   Garnet Chan, S. Sharma, J. Yang, R. Olivares  : DMRG
   Ulf Ekstrom                                   : XCFun DFT Library
   Mihaly Kallay                                 : mrcc  (arbitrary order and MRCC methods)
   Frank Weinhold                                : gennbo (NPA and NBO analysis)
   Simon Mueller                                 : openCOSMO-RS
   Christopher J. Cramer and Donald G. Truhlar   : smd solvation model
   Lars Goerigk                                  : TD-DFT with DH, B97 family of functionals
   V. Asgeirsson, H. Jonsson                     : NEB implementation
   FAccTs GmbH                                   : IRC, NEB, NEB-TS, DLPNO-Multilevel, CI-OPT
                                                   MM, QMMM, 2- and 3-layer-ONIOM, Crystal-QMMM,
                                                   LR-CPCM, SF, NACMEs, symmetry and pop. for TD-DFT,
                                                   nearIR, NL-DFT gradient (VV10), updates on ESD,
                                                   ML-optimized integration grids, MBIS, APM,
                                                   GOAT, DOCKER, SOLVATOR, interface openCOSMO-RS
   S Lehtola, MJT Oliveira, MAL Marques          : LibXC Library
   Liviu Ungur et al                             : ANISO software


 Your calculation uses the libint2 library for the computation of 2-el integrals
 For citations please refer to: http://libint.valeyev.net

 Your ORCA version has been built with support for libXC version: 6.2.2
 For citations please refer to: https://libxc.gitlab.io

 This ORCA versions uses:
   CBLAS   interface :  Fast vector & matrix operations
   LAPACKE interface :  Fast linear algebra routines
   SCALAPACK package :  Parallel linear algebra routines
   Shared memory     :  Shared parallel matrices
   BLAS/LAPACK       :  OpenBLAS 0.3.27  USE64BITINT DYNAMIC_ARCH NO_AFFINITY Zen SINGLE_THREADED
        Core in use  :  Zen
   Copyright (c) 2011-2014, The OpenBLAS Project


NOTE: MaxCore=14000 MB was set to SCF,MP2,MDCI,CIPSI,MRCI and CIS
      => If you want to overwrite this, your respective input block should be placed after the MaxCore statement
================================================================================

----- Orbital basis set information -----
Your calculation utilizes the basis: DKH-def2-TZVP
   Exponents from def2-TZVP [F. Weigend and R. Ahlrichs, Phys. Chem. Chem. Phys. 7, 3297 (2005)],
   recontracted for DKH2 by D. A. Pantazis.

----- AuxJ basis set information -----
Your calculation utilizes the AutoAux generation procedure.
  G. L. Stoychev, A. A. Auer, F. Neese, J. Chem. Theory Comput. 13, 554 (2017)

----- AuxC basis set information -----
Your calculation utilizes the AutoAux generation procedure.
  G. L. Stoychev, A. A. Auer, F. Neese, J. Chem. Theory Comput. 13, 554 (2017)

----- AuxJK basis set information -----
Your calculation utilizes the AutoAux generation procedure.
  G. L. Stoychev, A. A. Auer, F. Neese, J. Chem. Theory Comput. 13, 554 (2017)

----- AuxX basis set information -----
Your calculation utilizes the AutoAux generation procedure.
  G. L. Stoychev, A. A. Auer, F. Neese, J. Chem. Theory Comput. 13, 554 (2017)

================================================================================
                                        WARNINGS
                       Please study these warnings very carefully!
================================================================================


WARNING: Relativistic property calculations require picture change transformations!
  ===> : Setting %rel PictureChange = 2

IMPORTANT NOTE: CASSCF must signal convergence for a subsequent CASPT2/NEVPT2! 
                Set maxiter=1 to run CASPT2/NEVPT2 with arbitrary orbitals.


================================================================================
                                       INPUT FILE
================================================================================
NAME = run_D4h_Ni.inp
|  1>   !DKH DKH-DEF2-TZVP AutoAux TightSCF
|  2> 
|  3>   %maxcore 14000
|  4> 
|  5>   #%scf rotate
|  6>   # {9,33}
|  7>   # {10,34}
|  8>   # {11,35}
|  9>   # {12,36}
| 10>   # {13,37}
| 11>   # end
| 12>   #end
| 13> 
| 14>   %casscf
| 15>     nel 8
| 16>     norb 5
| 17>     mult 3, 1
| 18>     nroots 10, 15
| 19>     trafostep RI
| 20>     etol 1e-6
| 21>     actorbs dorbs
| 22>     nevpt2 sc
| 23>     printlevel 3
| 24>     maxiter 10000
| 25>    rel
| 26>      dosoc true
| 27>    end
| 28>   end
| 29> 
| 30>   *xyz -2 3
| 31>   F    3.0   0.0   0.0
| 32>   F   -3.0   0.0   0.0
| 33>   F    0.0   3.0   0.0
| 34>   F    0.0   -3.0   0.0
| 35>   Ni   0.0   0.0   0.0
| 36>   *
| 37> 
| 38> 
| 39>                          ****END OF INPUT****
================================================================================

                       ****************************
                       * Single Point Calculation *
                       ****************************

---------------------------------
CARTESIAN COORDINATES (ANGSTROEM)
---------------------------------
  F      3.000000    0.000000    0.000000
  F     -3.000000    0.000000    0.000000
  F      0.000000    3.000000    0.000000
  F      0.000000   -3.000000    0.000000
  Ni     0.000000    0.000000    0.000000

----------------------------
CARTESIAN COORDINATES (A.U.)
----------------------------
  NO LB      ZA    FRAG     MASS         X           Y           Z
   0 F     9.0000    0    18.998    5.669178    0.000000    0.000000
   1 F     9.0000    0    18.998   -5.669178    0.000000    0.000000
   2 F     9.0000    0    18.998    0.000000    5.669178    0.000000
   3 F     9.0000    0    18.998    0.000000   -5.669178    0.000000
   4 Ni   28.0000    0    58.700    0.000000    0.000000    0.000000

--------------------------------
INTERNAL COORDINATES (ANGSTROEM)
--------------------------------
 F      0   0   0     0.000000000000     0.00000000     0.00000000
 F      1   0   0     6.000000000000     0.00000000     0.00000000
 F      1   2   0     4.242640687119    45.00000000     0.00000000
 F      1   2   3     4.242640687119    45.00000000   180.00000000
 Ni     1   2   3     3.000000000000     0.00000000     0.00000000

---------------------------
INTERNAL COORDINATES (A.U.)
---------------------------
 F      0   0   0     0.000000000000     0.00000000     0.00000000
 F      1   0   0    11.338356803528     0.00000000     0.00000000
 F      1   2   0     8.017428983287    45.00000000     0.00000000
 F      1   2   3     8.017428983287    45.00000000   180.00000000
 Ni     1   2   3     5.669178401764     0.00000000     0.00000000

---------------------
BASIS SET INFORMATION
---------------------
There are 2 groups of distinct atoms

 Group   1 Type F   : 11s6p2d1f contracted to 6s3p2d1f pattern {611111/411/11/1}
 Group   2 Type Ni  : 17s11p7d1f contracted to 10s6p4d1f pattern {8111111111/611111/4111/1}

Atom   0F    basis set group =>   1
Atom   1F    basis set group =>   1
Atom   2F    basis set group =>   1
Atom   3F    basis set group =>   1
Atom   4Ni   basis set group =>   2
---------------------------------
AUXILIARY/J BASIS SET INFORMATION
---------------------------------
There are 2 groups of distinct atoms

 Group   1 Type F   : 16s13p12d7f3g contracted to 16s13p12d7f3g pattern {1111111111111111/1111111111111/111111111111/1111111/111}
 Group   2 Type Ni  : 22s18p17d17f12g3h contracted to 22s18p17d17f12g3h pattern {1111111111111111111111/111111111111111111/11111111111111111/11111111111111111/111111111111/111}

Atom   0F    basis set group =>   1
Atom   1F    basis set group =>   1
Atom   2F    basis set group =>   1
Atom   3F    basis set group =>   1
Atom   4Ni   basis set group =>   2
---------------------------------
AUXILIARY/C BASIS SET INFORMATION
---------------------------------
There are 2 groups of distinct atoms

 Group   1 Type F   : 16s13p12d7f3g contracted to 16s13p12d7f3g pattern {1111111111111111/1111111111111/111111111111/1111111/111}
 Group   2 Type Ni  : 22s18p17d17f12g3h contracted to 22s18p17d17f12g3h pattern {1111111111111111111111/111111111111111111/11111111111111111/11111111111111111/111111111111/111}

Atom   0F    basis set group =>   1
Atom   1F    basis set group =>   1
Atom   2F    basis set group =>   1
Atom   3F    basis set group =>   1
Atom   4Ni   basis set group =>   2
----------------------------------
AUXILIARY/JK BASIS SET INFORMATION
----------------------------------
There are 2 groups of distinct atoms

 Group   1 Type F   : 16s13p12d7f3g contracted to 16s13p12d7f3g pattern {1111111111111111/1111111111111/111111111111/1111111/111}
 Group   2 Type Ni  : 22s18p17d17f12g3h contracted to 22s18p17d17f12g3h pattern {1111111111111111111111/111111111111111111/11111111111111111/11111111111111111/111111111111/111}

Atom   0F    basis set group =>   1
Atom   1F    basis set group =>   1
Atom   2F    basis set group =>   1
Atom   3F    basis set group =>   1
Atom   4Ni   basis set group =>   2
---------------------------------
AUXILIARY/X BASIS SET INFORMATION
---------------------------------
There are 2 groups of distinct atoms

 Group   1 Type F   : 16s13p12d7f3g contracted to 16s13p12d7f3g pattern {1111111111111111/1111111111111/111111111111/1111111/111}
 Group   2 Type Ni  : 22s18p17d17f12g3h contracted to 22s18p17d17f12g3h pattern {1111111111111111111111/111111111111111111/11111111111111111/11111111111111111/111111111111/111}

Atom   0F    basis set group =>   1
Atom   1F    basis set group =>   1
Atom   2F    basis set group =>   1
Atom   3F    basis set group =>   1
Atom   4Ni   basis set group =>   2
------------------------------------------------------------------------------
                             ORCA STARTUP CALCULATIONS
------------------------------------------------------------------------------
------------------------------------------------------------------------------
                   ___                                                        
                  /   \      - P O W E R E D   B Y -                         
                 /     \                                                     
                 |  |  |   _    _      __       _____    __    __             
                 |  |  |  | |  | |    /  \     |  _  \  |  |  /  |          
                  \  \/   | |  | |   /    \    | | | |  |  | /  /          
                 / \  \   | |__| |  /  /\  \   | |_| |  |  |/  /          
                |  |  |   |  __  | /  /__\  \  |    /   |      \           
                |  |  |   | |  | | |   __   |  |    \   |  |\   \          
                \     /   | |  | | |  |  |  |  | |\  \  |  | \   \       
                 \___/    |_|  |_| |__|  |__|  |_| \__\ |__|  \__/        
                                                                              
                      - O R C A' S   B I G   F R I E N D -                    
                                      &                                       
                       - I N T E G R A L  F E E D E R -                       
                                                                              
 v1 FN, 2020, v2 2021, v3 2022-2024                                           
------------------------------------------------------------------------------


----------------------
SHARK INTEGRAL PACKAGE
----------------------

Number of atoms                             ...      5
Number of basis functions                   ...    183
Number of shells                            ...     69
Maximum angular momentum                    ...      3
Integral batch strategy                     ... SHARK/LIBINT Hybrid
RI-J (if used) integral strategy            ... SPLIT-RIJ (Revised 2003 algorithm where possible)
Printlevel                                  ...      1
Contraction scheme used                     ... SEGMENTED contraction
Prescreening option                         ... SCHWARTZ
   Thresh                                   ... 2.500e-11
   Tcut                                     ... 2.500e-12
   Tpresel                                  ... 2.500e-12 
Coulomb Range Separation                    ... NOT USED
Exchange Range Separation                   ... NOT USED
Multipole approximations                    ... NOT USED
Finite Nucleus Model                        ... NOT USED
CABS basis                                  ... NOT available
Auxiliary Coulomb fitting basis             ... AVAILABLE
   # of basis functions in Aux-J            ...   1185
   # of shells in Aux-J                     ...    293
   Maximum angular momentum in Aux-J        ...      5
Auxiliary J/K fitting basis                 ... AVAILABLE
   # of basis functions in Aux-JK           ...   1185
   # of shells in Aux-JK                    ...    293
   Maximum angular momentum in Aux-JK       ...      5
Auxiliary Correlation fitting basis         ... AVAILABLE
   # of basis functions in Aux-C            ...   1185
   # of shells in Aux-C                     ...    293
   Maximum angular momentum in Aux-C        ...      5
Auxiliary 'external' fitting basis          ... NOT available

Checking pre-screening integrals            ... done (  0.0 sec) Dimension = 69
Check shell pair data                       ... done (  0.0 sec)
Shell pair information
Shell pair cut-off parameter TPreSel        ...   2.5e-12
Total number of shell pairs                 ...      2415
Shell pairs after pre-screening             ...      1467
Total number of primitive shell pairs       ...      6919
Primitive shell pairs kept                  ...      3215
          la=0 lb=0:    313 shell pairs
          la=1 lb=0:    400 shell pairs
          la=1 lb=1:    135 shell pairs
          la=2 lb=0:    240 shell pairs
          la=2 lb=1:    156 shell pairs
          la=2 lb=2:     54 shell pairs
          la=3 lb=0:     70 shell pairs
          la=3 lb=1:     62 shell pairs
          la=3 lb=2:     28 shell pairs
          la=3 lb=3:      9 shell pairs

Calculating one electron integrals          ... done (  0.0 sec)
Calculating RI/J V-Matrix + Cholesky decomp.... done (  0.0 sec)
Calculating RI/JK V-Matrix + Cholesky decomp... done (  0.0 sec)
Calculating RI/C V-Matrix + Cholesky decomp.... done (  0.0 sec)
Calculating Nuclear repulsion               ... done (  0.0 sec) ENN=    232.503284196236 Eh

Diagonalization of the overlap matrix:
Smallest eigenvalue                        ... 6.131e-04
Time for diagonalization                   ...    0.002 sec
Threshold for overlap eigenvalues          ... 1.000e-07
Number of eigenvalues below threshold      ... 0
Time for construction of square roots      ...    0.001 sec
Total time needed                          ...    0.002 sec

-------------------
DFT GRID GENERATION
-------------------

General Integration Accuracy     IntAcc      ... 4.388
Radial Grid Type                 RadialGrid  ... OptM3 with GC (2021)
Angular Grid (max. ang.)         AngularGrid ... 4 (Lebedev-302)
Angular grid pruning method      GridPruning ... 4 (adaptive)
Weight generation scheme         WeightScheme... mBecke (2022)
Basis function cutoff            BFCut       ... 1.0000e-11
Integration weight cutoff        WCut        ... 1.0000e-14
Partially contracted basis set               ... off
Rotationally invariant grid construction     ... off
Angular grids for H and He will be reduced by one unit
Core-polarized basis detected: some atoms will have their core
                               angular grid increased.

Total number of grid points                  ...    35852
Total number of batches                      ...      562
Average number of points per batch           ...       63
Average number of grid points per atom       ...     7170
Initializing property integral containers    ... done (  0.0 sec)

SHARK setup successfully completed in   0.3 seconds

Maximum memory used throughout the entire STARTUP-calculation: 32.6 MB
------------------------------------------------------------------------------
                          ORCA RELATIVISTIC HAMILTONIAN
------------------------------------------------------------------------------

Relativistic Method            ... DKH
Order of DKH treatment         ...   2
Treatment of potential         ... V(e,N)
Eps parameter for DKH          ...   0.00000000010000
Nucleus model                  ... Point Nucleus
Speed of light used            ... 137.03598950000000


            ************************************************
            *        DOUGLAS-KROLL-HESS HAMILTONIAN        *
            *   Programmed by FN according to literature   *
            *        procedures. Special thanks to         *
            *       B.A. Hess, M. Reiher and A. Wolf       *
            *     University Erlangen-Nuernberg/Bonn       *
            ************************************************

Uncontracting the basis (first version)        ... done
Number of contracted basis functions           ...  183
Number of uncontracted basis functions         ...  276
Initializing the DKH file                      ... done
Calculating the relativistic integrals         ... done
Storing DKH matrices                           ... done
Computing the DKH transformation               ... done
Storing the transformation variables           ... done
Transforming V and pVp to p**2 space           ... done
First transformation of V and pVp              ... done
Second transformation of Veff                  ... done
Adding kinetic energy                          ... done
Back transformation of Veff to r-space         ... done
Recovering DKH matrices                        ... done
Recontracting the H-matrix (first version)     ... done
Computing the DKH correction to the H-matrix   ... done
Reading the original H-matrix                  ... done
Adding DKH correction to the H-matrix          ... done
Storing the new modified H-matrix              ... done

Maximum memory used throughout the entire REL-calculation: 22.0 MB
-------------------------------------------------------------------------------
                                 ORCA GUESS
                   Start orbitals & Density for SCF / CASSCF
-------------------------------------------------------------------------------

------------
SCF SETTINGS
------------
Hamiltonian:
 Ab initio Hamiltonian  Method          .... Hartree-Fock(GTOs)

Relativistic Settings:
 Scalar relativistic method             .... Douglas-Kroll-Hess
 Order of DKH procedure    Order        ....    2
 Mode of DKH-treatment                  .... V=V(e,N)
 Speed of light used       Velit        ....       137.035989
 Cutoff-constant           Eps          ....            1e-10 


General Settings:
 Integral files         IntName         .... run_D4h_Ni
 Hartree-Fock type      HFTyp           .... CASSCF
 Total Charge           Charge          ....   -2
 Multiplicity           Mult            ....    3
 Number of Electrons    NEL             ....   66
 Basis Dimension        Dim             ....  183
 Nuclear Repulsion      ENuc            ....    232.5032841962 Eh

------------------------------
INITIAL GUESS: MODEL POTENTIAL
------------------------------
Loading DKH relativistic densities                 ... done
Calculating cut-offs                               ... done
Initializing the effective Hamiltonian             ... done
Setting up the integral package (SHARK)            ... done
Starting the Coulomb interaction                   ... done (   0.0 sec)
Making the grid                                    ... done (   0.0 sec)
Mapping shells                                     ... done
Starting the XC term evaluation                    ... done (   0.0 sec)
Transforming the Hamiltonian                       ... done (   0.0 sec)
Diagonalizing the Hamiltonian                      ... done (   0.0 sec)
Back transforming the eigenvectors                 ... done (   0.0 sec)
Now organizing SCF variables                       ... done
                      ------------------
                      INITIAL GUESS DONE (   0.1 sec)
                      ------------------
             **** ENERGY FILE WAS UPDATED (run_D4h_Ni.en.tmp) ****
Finished Guess after   0.1 sec
Maximum memory used throughout the entire GUESS-calculation: 15.9 MB
-------------------------------------------------------------------------------
                              ORCA-CASSCF
-------------------------------------------------------------------------------

Setting up the integral package     ... Building the CAS space              ... done (10 configurations for Mult=3)
Building the CAS space              ... done (15 configurations for Mult=1)
Memory for address arrays  		      ... done
Make address arrays			      ... done
Memory for buffers 			      ... done
Setting up spin-function prototypes	      ... (MAXOPEN=2) 2 4 done
Trivial cases - DOMO's			      ... done (  0.0 MB)
Number of open shells			    ...  2
domo->virtual excitations			... done (  0.0 MB)
domo->somo excitations				... done (  0.0 MB)
somo->virtual excitations			... done (  0.0 MB)
somo->somo excitations				... done (  0.0 MB)
Coupling container construction done
Memory for address arrays  		      ... done
Make address arrays			      ... done
Memory for buffers 			      ... done
Setting up spin-function prototypes	      ... (MAXOPEN=2) 0 2 4 done
Trivial cases - DOMO's			      ... done (  0.0 MB)
Number of open shells			    ...  0
domo->virtual excitations			... done (  0.0 MB)
domo->somo excitations				... done (  0.0 MB)
somo->virtual excitations			... done (  0.0 MB)
somo->somo excitations				... done (  0.0 MB)
Number of open shells			    ...  2
domo->virtual excitations			... done (  0.0 MB)
domo->somo excitations				... done (  0.0 MB)
somo->virtual excitations			... done (  0.0 MB)
somo->somo excitations				... done (  0.0 MB)
Coupling container construction done

 CASSCF (estimated) memory needed     ... 11.3 MB
 NEVPT2 (estimated) memory needed     ... 24.3 MB


SYSTEM-SPECIFIC SETTINGS:
Number of active electrons          ...    8
Number of active orbitals           ...    5
Total number of electrons           ...   66
Total number of orbitals            ...  183
Total number aux. functions         ... 1185

Determined orbital ranges:
   Internal       0 -   28 (  29 orbitals)
   Active        29 -   33 (   5 orbitals)
   External      34 -  182 ( 149 orbitals)
Number of rotation parameters      ...   5211

CI-STEP:
CI strategy                         ... General CI
Number of multiplicity blocks       ...    2
BLOCK  0 WEIGHT=   0.5000
  Multiplicity                      ...    3
  #(Configurations)                 ...   10
  #(CSFs)                           ...   10
  #(Roots)                          ...   10
    ROOT=0 WEIGHT=    0.050000
    ROOT=1 WEIGHT=    0.050000
    ROOT=2 WEIGHT=    0.050000
    ROOT=3 WEIGHT=    0.050000
    ROOT=4 WEIGHT=    0.050000
    ROOT=5 WEIGHT=    0.050000
    ROOT=6 WEIGHT=    0.050000
    ROOT=7 WEIGHT=    0.050000
    ROOT=8 WEIGHT=    0.050000
    ROOT=9 WEIGHT=    0.050000

BLOCK  1 WEIGHT=   0.5000
  Multiplicity                      ...    1
  #(Configurations)                 ...   15
  #(CSFs)                           ...   15
  #(Roots)                          ...   15
    ROOT=0 WEIGHT=    0.033333
    ROOT=1 WEIGHT=    0.033333
    ROOT=2 WEIGHT=    0.033333
    ROOT=3 WEIGHT=    0.033333
    ROOT=4 WEIGHT=    0.033333
    ROOT=5 WEIGHT=    0.033333
    ROOT=6 WEIGHT=    0.033333
    ROOT=7 WEIGHT=    0.033333
    ROOT=8 WEIGHT=    0.033333
    ROOT=9 WEIGHT=    0.033333
    ROOT=10 WEIGHT=    0.033333
    ROOT=11 WEIGHT=    0.033333
    ROOT=12 WEIGHT=    0.033333
    ROOT=13 WEIGHT=    0.033333
    ROOT=14 WEIGHT=    0.033333

  PrintLevel                        ...    1
  N(GuessMat)                       ...      2048
  MaxDim(CI)                        ...        10
  MaxIter(CI)                       ...        64
  Energy Tolerance CI               ...  1.00e-07
  Residual Tolerance CI             ...  1.00e-07
  Shift(CI)                         ...  1.00e-04

INTEGRAL-TRANSFORMATION-STEP:
  Algorithm                         ... RI-MO

ORBITAL-IMPROVEMENT-STEP:
  Algorithm                         ... SuperCI(PT)
  Default Parametrization           ... CAYLEY
  Act-Act rotations                 ... depends on algorithm used

  Note: SuperCI(PT) will ignore FreezeIE, FreezeAct and FreezeGrad. In general Default settings are encouraged.
        In conjunction with ShiftUp, ShiftDn or GradScaling the performance of SuperCI(PT) is less optimal.  

  MaxRot                            ... 2.00e-01 
  Max. no of vectors (DIIS)         ... 15
  DThresh (cut-off) metric          ... 1.00e-06
  Switch step at gradient           ...  3.00e-02 
  Switch step at iteration          ...        50   
  Switch step to                    ... SuperCI(PT)    

SCF-SETTINGS:
  Incremental                       ... on
  RIJCOSX approximation             ... off
  RI-JK approximation               ... off
  AO integral handling              ... DIRECT
  Integral Neglect Thresh           ...  2.50e-11
  Primitive cutoff TCut             ...  2.50e-12
  Energy convergence tolerance      ...  1.00e-06
  Orbital gradient convergence      ...  2.50e-04
  Max. number of iterations         ...     10000  

PT2-SETTINGS:
  A PT2 calculation will be performed on top of the CASSCF wave function (PT2 = SC-NEVPT2)   
 CI step strategy                   ... General CI
  D4C handling                      ... PS approximation (factorized) 
  CI truncation for D4C at          ...  1.00e-12
  CI truncation for D3  at          ...  1.00e-14
  Orbitals                          ... canonical for each state 
  Last  frozen  orbital             ... 8
  First deleted orbital             ... 183
  RI Step                           ... store IJV(array) (MC_ONDISK during integral transformation) 

FINAL ORBITALS:
  Active   Orbitals                 ... d-orbitals 
  Internal Orbitals                 ... canonical 
  External Orbitals                 ... canonical 

------------------
CAS-SCF ITERATIONS
------------------


MACRO-ITERATION   1: 
   --- Inactive Energy E0 = -1884.77585945 Eh
CI-ITERATION   0: 
 -1916.537367521   0.000000000002 (    0.00)
 -1916.536337243   0.000000000002
 -1916.536337243   0.000000000003
 -1916.529986825   0.000000000003
 -1916.529212408   0.000000000002
 -1916.528757665   0.000000000002
 -1916.528757665   0.000000000002
 -1916.459175612   0.000000000001
 -1916.445344437   0.000000000002
 -1916.445344436   0.000000000001
   CI-PROBLEM SOLVED
   DENSITIES MADE
CI-ITERATION   0: 
 -1916.471322679   0.000000000002 (    0.00)
 -1916.467009600   0.000000000002
 -1916.467009600   0.000000000003
 -1916.466389112   0.000000000002
 -1916.460951370   0.000000000002
 -1916.441898795   0.000000000001
 -1916.440642065   0.000000000001
 -1916.429866941   0.000000000002
 -1916.429866941   0.000000000002
 -1916.423424592   0.000000000002
 -1916.420990014   0.000000000002
 -1916.418712284   0.000000000002
 -1916.418712284   0.000000000002
 -1916.417790995   0.000000000001
 -1916.273360974   0.000000000001
   CI-PROBLEM SOLVED
   DENSITIES MADE

                 <<<<<<<<<<<<<<<<<<INITIAL CI STATE CHECK>>>>>>>>>>>>>>>>>>

BLOCK  0 MULT= 3 NROOTS=10 
ROOT   0:  E=   -1916.5373675212 Eh
      1.00000 [     9]: 22211
ROOT   1:  E=   -1916.5363372427 Eh  0.028 eV    226.1 cm**-1
      0.80902 [     6]: 21221
      0.13417 [     1]: 12122
      0.04253 [     2]: 12212
      0.01425 [     5]: 21212
ROOT   2:  E=   -1916.5363372427 Eh  0.028 eV    226.1 cm**-1
      0.80902 [     3]: 12221
      0.13417 [     4]: 21122
      0.04253 [     5]: 21212
      0.01425 [     2]: 12212
ROOT   3:  E=   -1916.5299868251 Eh  0.201 eV   1619.9 cm**-1
      1.00000 [     7]: 22112
ROOT   4:  E=   -1916.5292124079 Eh  0.222 eV   1789.8 cm**-1
      0.68450 [     0]: 11222
      0.31550 [     8]: 22121
ROOT   5:  E=   -1916.5287576649 Eh  0.234 eV   1889.6 cm**-1
      0.67920 [     4]: 21122
      0.22898 [     5]: 21212
      0.04576 [     2]: 12212
      0.03898 [     3]: 12221
      0.00668 [     1]: 12122
ROOT   6:  E=   -1916.5287576649 Eh  0.234 eV   1889.6 cm**-1
      0.67920 [     1]: 12122
      0.22898 [     2]: 12212
      0.04576 [     5]: 21212
      0.03898 [     6]: 21221
      0.00668 [     4]: 21122
ROOT   7:  E=   -1916.4591756119 Eh  2.128 eV  17161.1 cm**-1
      0.68450 [     8]: 22121
      0.31550 [     0]: 11222
ROOT   8:  E=   -1916.4453444365 Eh  2.504 eV  20196.7 cm**-1
      0.66844 [     5]: 21212
      0.13664 [     4]: 21122
      0.11511 [     3]: 12221
      0.04330 [     1]: 12122
      0.03648 [     6]: 21221
ROOT   9:  E=   -1916.4453444365 Eh  2.504 eV  20196.7 cm**-1
      0.66844 [     2]: 12212
      0.13664 [     1]: 12122
      0.11511 [     6]: 21221
      0.04330 [     4]: 21122
      0.03648 [     3]: 12221

BLOCK  1 MULT= 1 NROOTS=15 
ROOT   0:  E=   -1916.4713226795 Eh
      0.50187 [    14]: 22220
      0.18792 [    12]: 22202
      0.16647 [     9]: 22022
      0.07187 [     5]: 20222
      0.07187 [     0]: 02222
ROOT   1:  E=   -1916.4670096001 Eh  0.117 eV    946.6 cm**-1
      0.55313 [     8]: 21221
      0.35862 [     2]: 12122
      0.05341 [     3]: 12212
      0.02656 [     7]: 21212
      0.00502 [     4]: 12221
      0.00325 [     6]: 21122
ROOT   2:  E=   -1916.4670096001 Eh  0.117 eV    946.6 cm**-1
      0.55313 [     4]: 12221
      0.35862 [     6]: 21122
      0.05341 [     7]: 21212
      0.02656 [     3]: 12212
      0.00502 [     8]: 21221
      0.00325 [     2]: 12122
ROOT   3:  E=   -1916.4663891117 Eh  0.134 eV   1082.8 cm**-1
      0.73727 [    13]: 22211
      0.19803 [     1]: 11222
      0.03235 [     0]: 02222
      0.03235 [     5]: 20222
ROOT   4:  E=   -1916.4609513699 Eh  0.282 eV   2276.2 cm**-1
      0.65657 [    10]: 22112
      0.12943 [     0]: 02222
      0.12943 [     5]: 20222
      0.08457 [     1]: 11222
ROOT   5:  E=   -1916.4418987946 Eh  0.801 eV   6457.8 cm**-1
      1.00000 [    11]: 22121
ROOT   6:  E=   -1916.4406420648 Eh  0.835 eV   6733.6 cm**-1
      0.63322 [     9]: 22022
      0.34159 [    14]: 22220
      0.01925 [    12]: 22202
      0.00297 [     5]: 20222
      0.00297 [     0]: 02222
ROOT   7:  E=   -1916.4298669406 Eh  1.128 eV   9098.5 cm**-1
      0.55625 [     6]: 21122
      0.42144 [     4]: 12221
      0.01356 [     7]: 21212
      0.00324 [     2]: 12122
      0.00305 [     3]: 12212
ROOT   8:  E=   -1916.4298669406 Eh  1.128 eV   9098.5 cm**-1
      0.55625 [     2]: 12122
      0.42144 [     8]: 21221
      0.01356 [     3]: 12212
      0.00324 [     6]: 21122
      0.00305 [     7]: 21212
ROOT   9:  E=   -1916.4234245920 Eh  1.303 eV  10512.4 cm**-1
      0.55571 [     1]: 11222
      0.26273 [    13]: 22211
      0.09078 [     5]: 20222
      0.09078 [     0]: 02222
ROOT  10:  E=   -1916.4209900135 Eh  1.370 eV  11046.7 cm**-1
      0.34343 [    10]: 22112
      0.24744 [     5]: 20222
      0.24744 [     0]: 02222
      0.16169 [     1]: 11222
ROOT  11:  E=   -1916.4187122841 Eh  1.432 eV  11546.6 cm**-1
      0.90204 [     7]: 21212
      0.05657 [     6]: 21122
      0.02207 [     2]: 12122
      0.01292 [     4]: 12221
      0.00504 [     8]: 21221
ROOT  12:  E=   -1916.4187122841 Eh  1.432 eV  11546.6 cm**-1
      0.90204 [     3]: 12212
      0.05657 [     2]: 12122
      0.02207 [     6]: 21122
      0.01292 [     8]: 21221
      0.00504 [     4]: 12221
ROOT  13:  E=   -1916.4177909952 Eh  1.457 eV  11748.8 cm**-1
      0.57264 [    12]: 22202
      0.20599 [     0]: 02222
      0.20599 [     5]: 20222
      0.01226 [     9]: 22022
      0.00311 [    14]: 22220
ROOT  14:  E=   -1916.2733609738 Eh  5.387 eV  43447.6 cm**-1
      0.22018 [    12]: 22202
      0.21917 [     0]: 02222
      0.21917 [     5]: 20222
      0.18804 [     9]: 22022
      0.15343 [    14]: 22220

                 <<<<<<<<<<<<<<<<<<INITIAL CI STATE CHECK>>>>>>>>>>>>>>>>>>

   E(CAS)= -1916.468762661 Eh DE=    0.000000e+00
   --- Energy gap subspaces: Ext-Act = 0.806   Act-Int = -0.724
   N(occ)=  1.60000 1.60000 1.60000 1.60000 1.60000
   ||g|| =     6.450395e+00 Max(G)=   -3.127436e+00 Rot=181,0
   --- Orbital Update [SuperCI(PT)]
   --- Canonicalize Internal Space
   --- Canonicalize External Space
   --- SX_PT (Skipped TA=0 IT=0): ||X|| =     27.173242497 Max(X)(32,17) =    -24.990301151 
   --- SFit(Active Orbitals)

MACRO-ITERATION   2: 
   --- Inactive Energy E0 = -1889.72175978 Eh
CI-ITERATION   0: 
 -1916.691859773   0.000000000001 (    0.00)
 -1916.691859766   0.000000000002
 -1916.668383270   0.000000000001
 -1916.630310887   0.000000000002
 -1916.627504824   0.000000000002
 -1916.627504823   0.000000000001
 -1916.587523607   0.000000000001
 -1916.561777690   0.000000000003
 -1916.531704428   0.000000000001
 -1916.531704421   0.000000000001
   CI-PROBLEM SOLVED
   DENSITIES MADE
CI-ITERATION   0: 
 -1916.624802544   0.000000000001 (    0.00)
 -1916.613065533   0.000000000002
 -1916.613065531   0.000000000002
 -1916.591247936   0.000000000002
 -1916.582546701   0.000000000002
 -1916.563897380   0.000000000001
 -1916.544271070   0.000000000001
 -1916.544271069   0.000000000002
 -1916.540821240   0.000000000002
 -1916.535135120   0.000000000001
 -1916.493638004   0.000000000003
 -1916.493638003   0.000000000003
 -1916.482193957   0.000000000002
 -1916.474283842   0.000000000002
 -1916.347284086   0.000000000000
   CI-PROBLEM SOLVED
   DENSITIES MADE
   E(CAS)= -1916.575645408 Eh DE=   -1.068827e-01
   --- Energy gap subspaces: Ext-Act = 0.334   Act-Int = 0.152
   N(occ)=  1.60000 1.60000 1.60000 1.60000 1.60000
   ||g|| =     3.595210e+00 Max(G)=    5.502967e-01 Rot=52,28
   --- Orbital Update [SuperCI(PT)]
   --- Canonicalize Internal Space
   --- Canonicalize External Space
   --- SX_PT (Skipped TA=0 IT=0): ||X|| =      0.710594004 Max(X)(33,25) =      0.223493755 
   --- SFit(Active Orbitals)

MACRO-ITERATION   3: 
   --- Inactive Energy E0 = -1886.67698465 Eh
CI-ITERATION   0: 
 -1917.056965408   0.000000000001 (    0.00)
 -1917.056965408   0.000000000002
 -1917.052642300   0.000000000002
 -1917.049265503   0.000000000002
 -1917.049265502   0.000000000001
 -1917.045899267   0.000000000001
 -1917.041950893   0.000000000001
 -1916.976441365   0.000000000001
 -1916.959038979   0.000000000001
 -1916.959038978   0.000000000002
   CI-PROBLEM SOLVED
   DENSITIES MADE
CI-ITERATION   0: 
 -1916.983595321   0.000000000004 (    0.00)
 -1916.983595321   0.000000000002
 -1916.981628436   0.000000000003
 -1916.981244773   0.000000000001
 -1916.980062901   0.000000000005
 -1916.955654458   0.000000000001
 -1916.955018642   0.000000000002
 -1916.947355027   0.000000000005
 -1916.947355027   0.000000000003
 -1916.937996028   0.000000000001
 -1916.937422033   0.000000000002
 -1916.928886843   0.000000000001
 -1916.928886842   0.000000000001
 -1916.924706535   0.000000000001
 -1916.779771420   0.000000000002
   CI-PROBLEM SOLVED
   DENSITIES MADE
   E(CAS)= -1916.984146334 Eh DE=   -4.085009e-01
   --- Energy gap subspaces: Ext-Act = 0.625   Act-Int = -0.281
   N(occ)=  1.60000 1.60000 1.60000 1.60000 1.60000
   ||g|| =     5.165197e-01 Max(G)=    9.819066e-02 Rot=46,33
   --- Orbital Update [SuperCI(PT)]
   --- Canonicalize Internal Space
   --- Canonicalize External Space
   --- SX_PT (Skipped TA=0 IT=0): ||X|| =      0.207212395 Max(X)(32,16) =     -0.083801380 
   --- SFit(Active Orbitals)

MACRO-ITERATION   4: 
   --- Inactive Energy E0 = -1886.57857726 Eh
CI-ITERATION   0: 
 -1917.062681065   0.000000000002 (    0.00)
 -1917.062681064   0.000000000002
 -1917.058303074   0.000000000002
 -1917.055580405   0.000000000002
 -1917.055580404   0.000000000002
 -1917.053256106   0.000000000003
 -1917.049804369   0.000000000002
 -1916.981564106   0.000000000002
 -1916.965193526   0.000000000001
 -1916.965193525   0.000000000001
   CI-PROBLEM SOLVED
   DENSITIES MADE
CI-ITERATION   0: 
 -1916.988922876   0.000000000001 (    0.00)
 -1916.988922876   0.000000000002
 -1916.987226673   0.000000000002
 -1916.987055486   0.000000000001
 -1916.985933006   0.000000000004
 -1916.960655034   0.000000000003
 -1916.960108051   0.000000000001
 -1916.952180307   0.000000000004
 -1916.952180307   0.000000000002
 -1916.943348407   0.000000000002
 -1916.942984882   0.000000000002
 -1916.935274740   0.000000000003
 -1916.935274740   0.000000000002
 -1916.931704149   0.000000000001
 -1916.784049998   0.000000000001
   CI-PROBLEM SOLVED
   DENSITIES MADE
   E(CAS)= -1916.990019266 Eh DE=   -5.872933e-03
   --- Energy gap subspaces: Ext-Act = 0.614   Act-Int = -0.265
   N(occ)=  1.60000 1.60000 1.60000 1.60000 1.60000
   ||g|| =     3.896114e-01 Max(G)=   -8.104702e-02 Rot=32,13
   --- Orbital Update [SuperCI(PT)]
   --- Canonicalize Internal Space
   --- Canonicalize External Space
   --- SX_PT (Skipped TA=0 IT=0): ||X|| =      0.194810152 Max(X)(30,18) =      0.079084255 
   --- SFit(Active Orbitals)

MACRO-ITERATION   5: 
   --- Inactive Energy E0 = -1885.86433358 Eh
CI-ITERATION   0: 
 -1917.078055494   0.000000000002 (    0.00)
 -1917.078055494   0.000000000003
 -1917.073789724   0.000000000001
 -1917.073531541   0.000000000002
 -1917.073117584   0.000000000003
 -1917.073117583   0.000000000001
 -1917.072675141   0.000000000001
 -1916.994666449   0.000000000003
 -1916.981945984   0.000000000003
 -1916.981945984   0.000000000002
   CI-PROBLEM SOLVED
   DENSITIES MADE
CI-ITERATION   0: 
 -1917.003683088   0.000000000002 (    0.00)
 -1917.003304934   0.000000000005
 -1917.003304934   0.000000000002
 -1917.002289302   0.000000000001
 -1917.001070703   0.000000000001
 -1916.973120613   0.000000000004
 -1916.972895199   0.000000000001
 -1916.964445233   0.000000000003
 -1916.964445233   0.000000000002
 -1916.958007621   0.000000000001
 -1916.957105222   0.000000000003
 -1916.952924972   0.000000000001
 -1916.952924971   0.000000000002
 -1916.951259726   0.000000000002
 -1916.794215026   0.000000000002
   CI-PROBLEM SOLVED
   DENSITIES MADE
   E(CAS)= -1917.005878275 Eh DE=   -1.585901e-02
   --- Energy gap subspaces: Ext-Act = 0.622   Act-Int = -0.265
   N(occ)=  1.60000 1.60000 1.60000 1.60000 1.60000
   ||g|| =     3.248496e-01 Max(G)=   -6.414653e-02 Rot=165,12
   --- Orbital Update [SuperCI(PT)]
   --- Canonicalize Internal Space
   --- Canonicalize External Space
   --- SX_PT (Skipped TA=0 IT=0): ||X|| =      0.106944241 Max(X)(30,19) =      0.042185905 
   --- SFit(Active Orbitals)

MACRO-ITERATION   6: 
   --- Inactive Energy E0 = -1885.63716189 Eh
CI-ITERATION   0: 
 -1917.086315406   0.000000000003 (    0.00)
 -1917.086315406   0.000000000002
 -1917.085003701   0.000000000001
 -1917.082180176   0.000000000001
 -1917.081536983   0.000000000002
 -1917.081536983   0.000000000001
 -1917.081327678   0.000000000001
 -1917.000789847   0.000000000003
 -1916.989306510   0.000000000002
 -1916.989306510   0.000000000001
   CI-PROBLEM SOLVED
   DENSITIES MADE
CI-ITERATION   0: 
 -1917.012410670   0.000000000002 (    0.00)
 -1917.010523568   0.000000000003
 -1917.010523568   0.000000000003
 -1917.008446968   0.000000000001
 -1917.006490260   0.000000000003
 -1916.978626956   0.000000000002
 -1916.978456053   0.000000000002
 -1916.969920461   0.000000000002
 -1916.969920461   0.000000000001
 -1916.964369972   0.000000000002
 -1916.963247335   0.000000000002
 -1916.960357416   0.000000000002
 -1916.960357416   0.000000000001
 -1916.959269104   0.000000000002
 -1916.796795310   0.000000000002
   CI-PROBLEM SOLVED
   DENSITIES MADE
   E(CAS)= -1917.013171477 Eh DE=   -7.293202e-03
   --- Energy gap subspaces: Ext-Act = 0.594   Act-Int = -0.234
   N(occ)=  1.60000 1.60000 1.60000 1.60000 1.60000
   ||g|| =     1.156101e-01 Max(G)=   -2.785366e-02 Rot=65,12
   --- Orbital Update [SuperCI(PT)]
   --- Canonicalize Internal Space
   --- Canonicalize External Space
   --- SX_PT (Skipped TA=0 IT=0): ||X|| =      0.022481859 Max(X)(32,13) =      0.008753912 
   --- SFit(Active Orbitals)

MACRO-ITERATION   7: 
   --- Inactive Energy E0 = -1885.61250722 Eh
CI-ITERATION   0: 
 -1917.086575932   0.000000000002 (    0.00)
 -1917.086575932   0.000000000002
 -1917.085445791   0.000000000001
 -1917.082524148   0.000000000001
 -1917.081807611   0.000000000001
 -1917.081807611   0.000000000001
 -1917.081565099   0.000000000003
 -1917.001196128   0.000000000002
 -1916.989840020   0.000000000001
 -1916.989840020   0.000000000001
   CI-PROBLEM SOLVED
   DENSITIES MADE
CI-ITERATION   0: 
 -1917.013105197   0.000000000002 (    0.00)
 -1917.011063076   0.000000000003
 -1917.011063076   0.000000000004
 -1917.008643988   0.000000000002
 -1917.006677418   0.000000000002
 -1916.979067112   0.000000000003
 -1916.978903295   0.000000000002
 -1916.970420395   0.000000000006
 -1916.970420395   0.000000000001
 -1916.964955038   0.000000000003
 -1916.963837153   0.000000000004
 -1916.961024545   0.000000000002
 -1916.961024545   0.000000000002
 -1916.959967050   0.000000000002
 -1916.797744893   0.000000000003
   CI-PROBLEM SOLVED
   DENSITIES MADE
   E(CAS)= -1917.013622820 Eh DE=   -4.513434e-04
   --- Energy gap subspaces: Ext-Act = 0.603   Act-Int = -0.242
   N(occ)=  1.60000 1.60000 1.60000 1.60000 1.60000
   ||g|| =     1.467597e-02 Max(G)=   -3.502421e-03 Rot=32,13
   --- Orbital Update [SuperCI(PT)]
   --- Canonicalize Internal Space
   --- Canonicalize External Space
   --- SX_PT (Skipped TA=0 IT=0): ||X|| =      0.007376260 Max(X)(32,13) =      0.003134476 
   --- SFit(Active Orbitals)

MACRO-ITERATION   8: 
   --- Inactive Energy E0 = -1885.61659923 Eh
CI-ITERATION   0: 
 -1917.086560557   0.000000000002 (    0.00)
 -1917.086560557   0.000000000002
 -1917.085442525   0.000000000002
 -1917.082537242   0.000000000003
 -1917.081813157   0.000000000002
 -1917.081813156   0.000000000002
 -1917.081565614   0.000000000002
 -1917.001223543   0.000000000002
 -1916.989898509   0.000000000001
 -1916.989898509   0.000000000001
   CI-PROBLEM SOLVED
   DENSITIES MADE
CI-ITERATION   0: 
 -1917.013243283   0.000000000002 (    0.00)
 -1917.011149362   0.000000000001
 -1917.011149362   0.000000000001
 -1917.008548617   0.000000000004
 -1917.006594632   0.000000000002
 -1916.979100220   0.000000000002
 -1916.978939176   0.000000000001
 -1916.970476584   0.000000000001
 -1916.970476584   0.000000000002
 -1916.965033389   0.000000000003
 -1916.963917175   0.000000000003
 -1916.961115598   0.000000000002
 -1916.961115598   0.000000000003
 -1916.960061270   0.000000000002
 -1916.797905800   0.000000000002
   CI-PROBLEM SOLVED
   DENSITIES MADE
   E(CAS)= -1917.013659890 Eh DE=   -3.706954e-05
   --- Energy gap subspaces: Ext-Act = 0.604   Act-Int = -0.243
   N(occ)=  1.60000 1.60000 1.60000 1.60000 1.60000
   ||g|| =     7.398422e-03 Max(G)=    1.629228e-03 Rot=65,12
   --- Orbital Update [SuperCI(PT)]
   --- Canonicalize Internal Space
   --- Canonicalize External Space
   --- SX_PT (Skipped TA=0 IT=0): ||X|| =      0.002482184 Max(X)(29,21) =      0.000845145 
   --- SFit(Active Orbitals)

MACRO-ITERATION   9: 
   --- Inactive Energy E0 = -1885.61963899 Eh
CI-ITERATION   0: 
 -1917.086577110   0.000000000002 (    0.00)
 -1917.086577110   0.000000000002
 -1917.085465095   0.000000000001
 -1917.082552380   0.000000000002
 -1917.081826243   0.000000000002
 -1917.081826243   0.000000000001
 -1917.081577772   0.000000000002
 -1917.001226883   0.000000000003
 -1916.989898381   0.000000000001
 -1916.989898381   0.000000000001
   CI-PROBLEM SOLVED
   DENSITIES MADE
CI-ITERATION   0: 
 -1917.013291532   0.000000000003 (    0.00)
 -1917.011174987   0.000000000004
 -1917.011174987   0.000000000003
 -1917.008493068   0.000000000002
 -1917.006541834   0.000000000003
 -1916.979098146   0.000000000001
 -1916.978938545   0.000000000001
 -1916.970476138   0.000000000002
 -1916.970476138   0.000000000003
 -1916.965033163   0.000000000004
 -1916.963918451   0.000000000003
 -1916.961113845   0.000000000003
 -1916.961113844   0.000000000004
 -1916.960058167   0.000000000001
 -1916.797875913   0.000000000003
   CI-PROBLEM SOLVED
   DENSITIES MADE
   E(CAS)= -1917.013663905 Eh DE=   -4.014983e-06
   --- Energy gap subspaces: Ext-Act = 0.603   Act-Int = -0.242
   N(occ)=  1.60000 1.60000 1.60000 1.60000 1.60000
   ||g|| =     1.542579e-03 Max(G)=    3.538519e-04 Rot=65,12
   --- Orbital Update [SuperCI(PT)]
   --- Canonicalize Internal Space
   --- Canonicalize External Space
   --- SX_PT (Skipped TA=0 IT=0): ||X|| =      0.000441431 Max(X)(33,28) =     -0.000182463 
   --- SFit(Active Orbitals)

MACRO-ITERATION  10: 
   --- Inactive Energy E0 = -1885.61994078 Eh
CI-ITERATION   0: 
 -1917.086580650   0.000000000002 (    0.00)
 -1917.086580650   0.000000000001
 -1917.085467484   0.000000000001
 -1917.082555978   0.000000000001
 -1917.081830040   0.000000000001
 -1917.081830040   0.000000000002
 -1917.081581654   0.000000000002
 -1917.001226985   0.000000000002
 -1916.989897308   0.000000000002
 -1916.989897308   0.000000000001
   CI-PROBLEM SOLVED
   DENSITIES MADE
CI-ITERATION   0: 
 -1917.013288597   0.000000000001 (    0.00)
 -1917.011173508   0.000000000001
 -1917.011173508   0.000000000002
 -1917.008497004   0.000000000001
 -1917.006545186   0.000000000005
 -1916.979097395   0.000000000001
 -1916.978937581   0.000000000001
 -1916.970474265   0.000000000002
 -1916.970474265   0.000000000002
 -1916.965030679   0.000000000002
 -1916.963915413   0.000000000004
 -1916.961110630   0.000000000002
 -1916.961110630   0.000000000003
 -1916.960054835   0.000000000003
 -1916.797865086   0.000000000001
   CI-PROBLEM SOLVED
   DENSITIES MADE
   E(CAS)= -1917.013664024 Eh DE=   -1.190990e-07
   --- Energy gap subspaces: Ext-Act = 0.603   Act-Int = -0.242
   N(occ)=  1.60000 1.60000 1.60000 1.60000 1.60000
   ||g|| =     2.675980e-04 Max(G)=    5.375923e-05 Rot=32,13
                     ---- THE CAS-SCF ENERGY   HAS CONVERGED ----
                            --- FINALIZING ORBITALS ---
                    ---- DOING ONE FINAL ITERATION FOR PRINTING ----
   --- d-orbitals (depends on the molecular axis frame)
 L-Center:  4 Ni [0.000, 0.000, 0.000] 
   --- The active space contains 5 d Orbitals : OK
 Setting 29 active MO to AO dz2     (153)
 Setting 30 active MO to AO dxz     (154)
 Setting 31 active MO to AO dyz     (155)
 Setting 32 active MO to AO dx2y2   (156)
 Setting 33 active MO to AO dxy     (157)
   --- Canonicalize Internal Space
   --- Canonicalize External Space

MACRO-ITERATION  11: 
   --- Inactive Energy E0 = -1885.61994078 Eh
   --- All densities will be recomputed
CI-ITERATION   0: 
 -1917.086580653   0.000000000002 (    0.00)
 -1917.086580653   0.000000000001
 -1917.085467487   0.000000000001
 -1917.082555981   0.000000000002
 -1917.081830043   0.000000000001
 -1917.081830043   0.000000000002
 -1917.081581657   0.000000000002
 -1917.001226988   0.000000000002
 -1916.989897312   0.000000000002
 -1916.989897312   0.000000000001
   CI-PROBLEM SOLVED
   DENSITIES MADE
CI-ITERATION   0: 
 -1917.013288600   0.000000000001 (    0.00)
 -1917.011173511   0.000000000003
 -1917.011173511   0.000000000003
 -1917.008497008   0.000000000003
 -1917.006545189   0.000000000002
 -1916.979097398   0.000000000001
 -1916.978937584   0.000000000002
 -1916.970474268   0.000000000002
 -1916.970474268   0.000000000001
 -1916.965030682   0.000000000002
 -1916.963915416   0.000000000002
 -1916.961110633   0.000000000002
 -1916.961110633   0.000000000003
 -1916.960054838   0.000000000001
 -1916.797865089   0.000000000003
   CI-PROBLEM SOLVED
   DENSITIES MADE
   E(CAS)= -1917.013664027 Eh DE=   -3.124796e-09
   --- Energy gap subspaces: Ext-Act = 0.593   Act-Int = -0.254
   N(occ)=  1.60000 1.60000 1.60000 1.60000 1.60000
   ||g|| =     2.675970e-04 Max(G)=   -5.375921e-05 Rot=29,13
--------------
CASSCF RESULTS
--------------

Final CASSCF energy       : -1917.013664027 Eh  -52164.5938 eV

----------------
ORBITAL ENERGIES
----------------

  NO   OCC          E(Eh)            E(eV) 
   0   2.0000    -308.720826     -8400.7208 
   1   2.0000     -38.555296     -1049.1429 
   2   2.0000     -33.023400      -898.6124 
   3   2.0000     -33.021592      -898.5632 
   4   2.0000     -33.021592      -898.5632 
   5   2.0000     -25.851560      -703.4567 
   6   2.0000     -25.851559      -703.4567 
   7   2.0000     -25.851557      -703.4566 
   8   2.0000     -25.851557      -703.4566 
   9   2.0000      -4.929596      -134.1411 
  10   2.0000      -3.239667       -88.1558 
  11   2.0000      -3.234794       -88.0232 
  12   2.0000      -3.234794       -88.0232 
  13   2.0000      -1.075052       -29.2537 
  14   2.0000      -1.074874       -29.2488 
  15   2.0000      -1.074874       -29.2488 
  16   2.0000      -1.074769       -29.2460 
  17   2.0000      -0.184490        -5.0202 
  18   2.0000      -0.184235        -5.0133 
  19   2.0000      -0.183108        -4.9826 
  20   2.0000      -0.183056        -4.9812 
  21   2.0000      -0.183056        -4.9812 
  22   2.0000      -0.182341        -4.9617 
  23   2.0000      -0.182341        -4.9617 
  24   2.0000      -0.181761        -4.9460 
  25   2.0000      -0.180042        -4.8992 
  26   2.0000      -0.167771        -4.5653 
  27   2.0000      -0.167771        -4.5653 
  28   2.0000      -0.167384        -4.5547 
  29   1.6000      -0.421589       -11.4720 
  30   1.6000      -0.420400       -11.4397 
  31   1.6000      -0.420400       -11.4397 
  32   1.6000      -0.410235       -11.1631 
  33   1.6000      -0.414496       -11.2790 
  34   0.0000       0.183262         4.9868 
  35   0.0000       0.350888         9.5482 
  36   0.0000       0.424442        11.5497 
  37   0.0000       0.424442        11.5497 
  38   0.0000       0.443092        12.0572 
  39   0.0000       0.544627        14.8201 
  40   0.0000       0.544627        14.8201 
  41   0.0000       0.591063        16.0837 
  42   0.0000       0.597573        16.2608 
  43   0.0000       0.704159        19.1611 
  44   0.0000       1.044847        28.4317 
  45   0.0000       1.044847        28.4317 
  46   0.0000       1.053726        28.6733 
  47   0.0000       1.074478        29.2380 
  48   0.0000       1.079649        29.3787 
  49   0.0000       1.085374        29.5345 
  50   0.0000       1.089044        29.6344 
  51   0.0000       1.089044        29.6344 
  52   0.0000       1.111174        30.2366 
  53   0.0000       1.127351        30.6768 
  54   0.0000       1.127351        30.6768 
  55   0.0000       1.162256        31.6266 
  56   0.0000       1.204733        32.7825 
  57   0.0000       1.204733        32.7825 
  58   0.0000       1.399605        38.0852 
  59   0.0000       1.404999        38.2320 
  60   0.0000       1.404999        38.2320 
  61   0.0000       1.422476        38.7075 
  62   0.0000       1.425587        38.7922 
  63   0.0000       1.475435        40.1486 
  64   0.0000       1.606596        43.7177 
  65   0.0000       2.133045        58.0431 
  66   0.0000       2.272826        61.8467 
  67   0.0000       2.272826        61.8467 
  68   0.0000       2.685651        73.0803 
  69   0.0000       2.691833        73.2485 
  70   0.0000       2.693090        73.2827 
  71   0.0000       2.693090        73.2827 
  72   0.0000       2.693567        73.2957 
  73   0.0000       2.696865        73.3854 
  74   0.0000       2.698814        73.4385 
  75   0.0000       2.698814        73.4385 
  76   0.0000       2.699047        73.4448 
  77   0.0000       2.699393        73.4542 
  78   0.0000       2.699399        73.4544 
  79   0.0000       2.699429        73.4552 
  80   0.0000       2.699429        73.4552 
  81   0.0000       2.702574        73.5408 
  82   0.0000       2.713232        73.8308 
  83   0.0000       2.713232        73.8308 
  84   0.0000       2.736951        74.4762 
  85   0.0000       2.736951        74.4762 
  86   0.0000       2.744250        74.6748 
  87   0.0000       2.771170        75.4074 
  88   0.0000       3.078557        83.7718 
  89   0.0000       4.045075       110.0721 
  90   0.0000       4.050772       110.2271 
  91   0.0000       4.050792       110.2277 
  92   0.0000       4.050792       110.2277 
  93   0.0000       4.065942       110.6399 
  94   0.0000       4.076713       110.9330 
  95   0.0000       4.076713       110.9330 
  96   0.0000       4.085695       111.1774 
  97   0.0000       4.088903       111.2647 
  98   0.0000       4.088903       111.2647 
  99   0.0000       4.091845       111.3448 
 100   0.0000       4.100598       111.5829 
 101   0.0000       4.249116       115.6243 
 102   0.0000       4.249116       115.6243 
 103   0.0000       4.438049       120.7655 
 104   0.0000       4.469515       121.6217 
 105   0.0000       4.696056       127.7862 
 106   0.0000       4.696056       127.7862 
 107   0.0000       4.705977       128.0562 
 108   0.0000       4.729010       128.6829 
 109   0.0000       4.799918       130.6124 
 110   0.0000       5.986901       162.9119 
 111   0.0000       5.987970       162.9410 
 112   0.0000       5.987970       162.9410 
 113   0.0000       5.990043       162.9974 
 114   0.0000       5.990282       163.0039 
 115   0.0000       5.995185       163.1373 
 116   0.0000       5.995185       163.1373 
 117   0.0000       7.842770       213.4126 
 118   0.0000       7.842770       213.4126 
 119   0.0000       7.842856       213.4150 
 120   0.0000       7.843018       213.4194 
 121   0.0000       7.843190       213.4240 
 122   0.0000       7.843201       213.4243 
 123   0.0000       7.843691       213.4377 
 124   0.0000       7.843691       213.4377 
 125   0.0000       7.844017       213.4466 
 126   0.0000       7.844234       213.4524 
 127   0.0000       7.844234       213.4524 
 128   0.0000       7.845778       213.4945 
 129   0.0000       7.847316       213.5363 
 130   0.0000       7.847317       213.5363 
 131   0.0000       7.847415       213.5390 
 132   0.0000       7.847415       213.5390 
 133   0.0000       7.847459       213.5402 
 134   0.0000       7.847459       213.5402 
 135   0.0000       7.847694       213.5466 
 136   0.0000       7.847880       213.5517 
 137   0.0000       7.853330       213.7000 
 138   0.0000       7.853330       213.7000 
 139   0.0000       7.853331       213.7000 
 140   0.0000       7.853331       213.7000 
 141   0.0000       7.853331       213.7000 
 142   0.0000       7.853332       213.7000 
 143   0.0000       7.853332       213.7000 
 144   0.0000       7.853334       213.7001 
 145   0.0000       9.310165       253.3425 
 146   0.0000       9.310654       253.3558 
 147   0.0000       9.310654       253.3558 
 148   0.0000       9.310910       253.3627 
 149   0.0000       9.311461       253.3777 
 150   0.0000       9.315452       253.4863 
 151   0.0000       9.315452       253.4863 
 152   0.0000       9.315776       253.4952 
 153   0.0000       9.315917       253.4990 
 154   0.0000       9.315917       253.4990 
 155   0.0000       9.315937       253.4995 
 156   0.0000       9.315937       253.4995 
 157   0.0000       9.316302       253.5095 
 158   0.0000       9.320189       253.6152 
 159   0.0000       9.320189       253.6152 
 160   0.0000       9.322704       253.6837 
 161   0.0000       9.322789       253.6860 
 162   0.0000       9.322789       253.6860 
 163   0.0000       9.340112       254.1574 
 164   0.0000       9.363110       254.7832 
 165   0.0000      10.888594       296.2937 
 166   0.0000      10.994950       299.1878 
 167   0.0000      10.994950       299.1878 
 168   0.0000      19.672298       535.3104 
 169   0.0000      19.672298       535.3104 
 170   0.0000      19.698391       536.0205 
 171   0.0000      19.816656       539.2386 
 172   0.0000      19.841884       539.9251 
 173   0.0000      70.028742      1905.5789 
 174   0.0000     102.815754      2797.7589 
 175   0.0000     102.815754      2797.7589 
 176   0.0000     102.965356      2801.8298 
 177   0.0000     102.980231      2802.2346 
 178   0.0000     177.133832      4820.0566 
 179   0.0000     177.363574      4826.3082 
 180   0.0000     177.363574      4826.3082 
 181   0.0000     403.585712     10982.1255 
 182   0.0000    2450.476722     66680.8616 


---------------------------------------------
CAS-SCF STATES FOR BLOCK  0 MULT= 3 NROOTS=10
---------------------------------------------

ROOT   0:  E=   -1917.0865806530 Eh
      0.54705 [     5]: 21212
      0.22306 [     8]: 22121
      0.14867 [     7]: 22112
      0.06062 [     6]: 21221
      0.01619 [     0]: 11222
      0.00440 [     1]: 12122
ROOT   1:  E=   -1917.0865806530 Eh  0.000 eV      0.0 cm**-1
      0.54705 [     7]: 22112
      0.22306 [     6]: 21221
      0.14867 [     5]: 21212
      0.06062 [     8]: 22121
      0.01619 [     1]: 12122
      0.00440 [     0]: 11222
ROOT   2:  E=   -1917.0854674867 Eh  0.030 eV    244.3 cm**-1
      1.00000 [     2]: 12212
ROOT   3:  E=   -1917.0825559810 Eh  0.110 eV    883.3 cm**-1
      1.00000 [     3]: 12221
ROOT   4:  E=   -1917.0818300427 Eh  0.129 eV   1042.6 cm**-1
      0.27696 [     6]: 21221
      0.26190 [     8]: 22121
      0.16631 [     1]: 12122
      0.15727 [     0]: 11222
      0.07070 [     7]: 22112
      0.06686 [     5]: 21212
ROOT   5:  E=   -1917.0818300427 Eh  0.129 eV   1042.6 cm**-1
      0.27696 [     8]: 22121
      0.26190 [     6]: 21221
      0.16631 [     0]: 11222
      0.15727 [     1]: 12122
      0.07070 [     5]: 21212
      0.06686 [     7]: 22112
ROOT   6:  E=   -1917.0815816574 Eh  0.136 eV   1097.2 cm**-1
      0.72583 [     4]: 21122
      0.27417 [     9]: 22211
ROOT   7:  E=   -1917.0012269884 Eh  2.323 eV  18733.0 cm**-1
      0.72583 [     9]: 22211
      0.27417 [     4]: 21122
ROOT   8:  E=   -1916.9898973116 Eh  2.631 eV  21219.5 cm**-1
      0.48960 [     0]: 11222
      0.16623 [     1]: 12122
      0.13247 [     8]: 22121
      0.12446 [     5]: 21212
      0.04498 [     6]: 21221
      0.04226 [     7]: 22112
ROOT   9:  E=   -1916.9898973115 Eh  2.631 eV  21219.5 cm**-1
      0.48960 [     1]: 12122
      0.16623 [     0]: 11222
      0.13247 [     6]: 21221
      0.12446 [     7]: 22112
      0.04498 [     8]: 22121
      0.04226 [     5]: 21212


---------------------------------------------
CAS-SCF STATES FOR BLOCK  1 MULT= 1 NROOTS=15
---------------------------------------------

ROOT   0:  E=   -1917.0132885998 Eh
      0.37096 [    12]: 22202
      0.25830 [    14]: 22220
      0.21340 [     0]: 02222
      0.07867 [     5]: 20222
      0.07867 [     9]: 22022
ROOT   1:  E=   -1917.0111735109 Eh  0.058 eV    464.2 cm**-1
      0.46769 [     7]: 21212
      0.40167 [    11]: 22121
      0.09141 [     1]: 11222
      0.01909 [    10]: 22112
      0.01640 [     8]: 21221
      0.00373 [     2]: 12122
ROOT   2:  E=   -1917.0111735109 Eh  0.058 eV    464.2 cm**-1
      0.46769 [    10]: 22112
      0.40167 [     8]: 21221
      0.09141 [     2]: 12122
      0.01909 [     7]: 21212
      0.01640 [    11]: 22121
      0.00373 [     1]: 11222
ROOT   3:  E=   -1917.0084970075 Eh  0.130 eV   1051.6 cm**-1
      0.66042 [     3]: 12212
      0.16979 [     9]: 22022
      0.16979 [     5]: 20222
ROOT   4:  E=   -1917.0065451888 Eh  0.183 eV   1480.0 cm**-1
      0.62761 [     4]: 12221
      0.37239 [     6]: 21122
ROOT   5:  E=   -1916.9790973977 Eh  0.930 eV   7504.1 cm**-1
      1.00000 [    13]: 22211
ROOT   6:  E=   -1916.9789375842 Eh  0.935 eV   7539.2 cm**-1
      0.54599 [    14]: 22220
      0.45074 [    12]: 22202
      0.00274 [     0]: 02222
ROOT   7:  E=   -1916.9704742684 Eh  1.165 eV   9396.7 cm**-1
      0.50455 [     8]: 21221
      0.46869 [    10]: 22112
      0.01199 [    11]: 22121
      0.01114 [     7]: 21212
      0.00355 [     2]: 12122
ROOT   8:  E=   -1916.9704742684 Eh  1.165 eV   9396.7 cm**-1
      0.50455 [    11]: 22121
      0.46869 [     7]: 21212
      0.01199 [     8]: 21221
      0.01114 [    10]: 22112
      0.00355 [     1]: 11222
ROOT   9:  E=   -1916.9650306820 Eh  1.313 eV  10591.4 cm**-1
      0.33958 [     3]: 12212
      0.33021 [     5]: 20222
      0.33021 [     9]: 22022
ROOT  10:  E=   -1916.9639154158 Eh  1.344 eV  10836.2 cm**-1
      0.62761 [     6]: 21122
      0.37239 [     4]: 12221
ROOT  11:  E=   -1916.9611106329 Eh  1.420 eV  11451.7 cm**-1
      0.63478 [     1]: 11222
      0.26645 [     2]: 12122
      0.04605 [    11]: 22121
      0.02352 [     7]: 21212
      0.01933 [     8]: 21221
      0.00987 [    10]: 22112
ROOT  12:  E=   -1916.9611106329 Eh  1.420 eV  11451.7 cm**-1
      0.63478 [     2]: 12122
      0.26645 [     1]: 11222
      0.04605 [     8]: 21221
      0.02352 [    10]: 22112
      0.01933 [    11]: 22121
      0.00987 [     7]: 21212
ROOT  13:  E=   -1916.9600548377 Eh  1.449 eV  11683.5 cm**-1
      0.56585 [     0]: 02222
      0.21017 [     9]: 22022
      0.21017 [     5]: 20222
      0.00909 [    14]: 22220
      0.00472 [    12]: 22202
ROOT  14:  E=   -1916.7978650894 Eh  5.862 eV  47280.0 cm**-1
      0.21801 [     0]: 02222
      0.21090 [     9]: 22022
      0.21090 [     5]: 20222
      0.18662 [    14]: 22220
      0.17358 [    12]: 22202


-----------------------------
SA-CASSCF TRANSITION ENERGIES
------------------------------

LOWEST ROOT (ROOT 0 ,MULT 3) =  -1917.086580653 Eh -52166.578 eV

STATE   ROOT MULT  DE/a.u.    DE/eV    DE/cm**-1
   1:    1    3   0.000000     0.000      0.0
   2:    2    3   0.001113     0.030    244.3
   3:    3    3   0.004025     0.110    883.3
   4:    4    3   0.004751     0.129   1042.6
   5:    5    3   0.004751     0.129   1042.6
   6:    6    3   0.004999     0.136   1097.2
   7:    0    1   0.073292     1.994  16085.7
   8:    1    1   0.075407     2.052  16550.0
   9:    2    1   0.075407     2.052  16550.0
  10:    3    1   0.078084     2.125  17137.4
  11:    4    1   0.080035     2.178  17565.8
  12:    7    3   0.085354     2.323  18733.0
  13:    8    3   0.096683     2.631  21219.5
  14:    9    3   0.096683     2.631  21219.5
  15:    5    1   0.107483     2.925  23589.8
  16:    6    1   0.107643     2.929  23624.9
  17:    7    1   0.116106     3.159  25482.4
  18:    8    1   0.116106     3.159  25482.4
  19:    9    1   0.121550     3.308  26677.1
  20:   10    1   0.122665     3.338  26921.9
  21:   11    1   0.125470     3.414  27537.5
  22:   12    1   0.125470     3.414  27537.5
  23:   13    1   0.126526     3.443  27769.2
  24:   14    1   0.288716     7.856  63365.7


--------------
DENSITY MATRIX
--------------

                  0          1          2          3          4    
      0       1.600000  -0.000000   0.000000   0.000000   0.000000
      1      -0.000000   1.600000   0.000000   0.000000   0.000000
      2       0.000000   0.000000   1.600000   0.000000  -0.000000
      3       0.000000   0.000000   0.000000   1.600000  -0.000000
      4       0.000000   0.000000  -0.000000  -0.000000   1.600000
Trace of the electron density:  8.000000
Extracting Spin-Density from 2-RDM (MULT=3) ... done
Extracting Spin-Density from 2-RDM (MULT=1) ... done

-------------------
SPIN-DENSITY MATRIX
-------------------

                  0          1          2          3          4    
      0       0.200000  -0.000000  -0.000000   0.000000  -0.000000
      1      -0.000000   0.200000  -0.000000  -0.000000  -0.000000
      2      -0.000000  -0.000000   0.200000  -0.000000   0.000000
      3       0.000000  -0.000000  -0.000000   0.200000  -0.000000
      4      -0.000000  -0.000000   0.000000  -0.000000   0.200000
Trace of the spin density:  1.000000

-----------------
ENERGY COMPONENTS
-----------------

One electron energy          :  -3152.536565174 Eh      -85784.8812 eV
Two electron energy          :   1003.019616951 Eh       27293.5514 eV
Nuclear repulsion energy     :    232.503284196 Eh        6326.7360 eV
                               ----------------
                                -1917.013664027

Kinetic energy               :   1991.044151654 Eh       54179.0658 eV
Potential energy             :  -3908.057815681 Eh     -106343.6596 eV
Virial ratio                 :     -1.962818259 
                               ----------------
                                -1917.013664027

Core energy                  :  -1885.619940781 Eh   -51310.3272 eV


----------------------------
LOEWDIN ORBITAL-COMPOSITIONS
----------------------------

                      0         1         2         3         4         5   
                 -308.72083 -38.55530 -33.02340 -33.02159 -33.02159 -25.85156
                   2.00000   2.00000   2.00000   2.00000   2.00000   2.00000
                  --------  --------  --------  --------  --------  --------
 0 F  s               0.0       0.0       0.0       0.0       0.0      25.0
 1 F  s               0.0       0.0       0.0       0.0       0.0      25.0
 2 F  s               0.0       0.0       0.0       0.0       0.0      25.0
 3 F  s               0.0       0.0       0.0       0.0       0.0      25.0
 4 Ni s             100.0     100.0       0.0       0.0       0.0       0.0
 4 Ni pz              0.0       0.0     100.0       0.0       0.0       0.0
 4 Ni px              0.0       0.0       0.0      57.2      42.8       0.0
 4 Ni py              0.0       0.0       0.0      42.8      57.2       0.0

                      6         7         8         9        10        11   
                 -25.85156 -25.85156 -25.85156  -4.92960  -3.23967  -3.23479
                   2.00000   2.00000   2.00000   2.00000   2.00000   2.00000
                  --------  --------  --------  --------  --------  --------
 0 F  s              25.0      48.3       1.7       0.0       0.0       0.0
 1 F  s              25.0      48.3       1.7       0.0       0.0       0.0
 2 F  s              25.0       1.7      48.3       0.0       0.0       0.0
 3 F  s              25.0       1.7      48.3       0.0       0.0       0.0
 4 Ni s               0.0       0.0       0.0     100.0       0.0       0.0
 4 Ni pz              0.0       0.0       0.0       0.0     100.0       0.0
 4 Ni px              0.0       0.0       0.0       0.0       0.0      93.4
 4 Ni py              0.0       0.0       0.0       0.0       0.0       6.5

                     12        13        14        15        16        17   
                  -3.23479  -1.07505  -1.07487  -1.07487  -1.07477  -0.18449
                   2.00000   2.00000   2.00000   2.00000   2.00000   2.00000
                  --------  --------  --------  --------  --------  --------
 0 F  s               0.0      24.6      47.1       2.8      24.4       0.0
 0 F  py              0.0       0.0       0.0       0.0       0.0      24.6
 1 F  s               0.0      24.6      47.1       2.8      24.4       0.0
 1 F  py              0.0       0.0       0.0       0.0       0.0      24.6
 2 F  s               0.0      24.6       2.8      47.1      24.4       0.0
 2 F  px              0.0       0.0       0.0       0.0       0.0      24.6
 3 F  s               0.0      24.6       2.8      47.1      24.4       0.0
 3 F  px              0.0       0.0       0.0       0.0       0.0      24.6
 4 Ni s               0.0       1.0       0.0       0.0       0.0       0.0
 4 Ni px              6.5       0.0       0.2       0.0       0.0       0.0
 4 Ni py             93.4       0.0       0.0       0.2       0.0       0.0
 4 Ni dz2             0.0       0.8       0.0       0.0       0.0       0.0
 4 Ni dx2y2           0.0       0.0       0.0       0.0       2.4       0.0
 4 Ni dxy             0.0       0.0       0.0       0.0       0.0       1.7

                     18        19        20        21        22        23   
                  -0.18423  -0.18311  -0.18306  -0.18306  -0.18234  -0.18234
                   2.00000   2.00000   2.00000   2.00000   2.00000   2.00000
                  --------  --------  --------  --------  --------  --------
 0 F  pz              0.0      24.9      28.8      20.7       0.0       0.0
 0 F  px             22.0       0.0       0.0       0.0       0.7       1.1
 0 F  py              0.0       0.0       0.0       0.0      28.9      19.0
 1 F  pz              0.0      24.9      28.8      20.7       0.0       0.0
 1 F  px             22.0       0.0       0.0       0.0       0.7       1.1
 1 F  py              0.0       0.0       0.0       0.0      28.9      19.0
 2 F  pz              0.0      24.9      20.7      28.8       0.0       0.0
 2 F  px              0.0       0.0       0.0       0.0      19.0      28.9
 2 F  py             22.0       0.0       0.0       0.0       1.1       0.7
 3 F  pz              0.0      24.9      20.7      28.8       0.0       0.0
 3 F  px              0.0       0.0       0.0       0.0      19.0      28.9
 3 F  py             22.0       0.0       0.0       0.0       1.1       0.7
 4 Ni s              11.3       0.0       0.0       0.0       0.0       0.0
 4 Ni pz              0.0       0.4       0.0       0.0       0.0       0.0
 4 Ni px              0.0       0.0       0.0       0.0       0.2       0.3
 4 Ni py              0.0       0.0       0.0       0.0       0.3       0.2
 4 Ni dz2             0.8       0.0       0.0       0.0       0.0       0.0
 4 Ni dxz             0.0       0.0       0.6       0.4       0.0       0.0
 4 Ni dyz             0.0       0.0       0.4       0.6       0.0       0.0

                     24        25        26        27        28        29   
                  -0.18176  -0.18004  -0.16777  -0.16777  -0.16738  -0.42159
                   2.00000   2.00000   2.00000   2.00000   2.00000   1.60000
                  --------  --------  --------  --------  --------  --------
 0 F  pz             25.0       0.0       0.0       0.0       0.0       0.0
 0 F  px              0.0       0.0       0.2      46.1      23.8       0.0
 0 F  py              0.0      25.0       2.1       0.0       0.0       0.0
 1 F  pz             25.0       0.0       0.0       0.0       0.0       0.0
 1 F  px              0.0       0.0       0.2      46.1      23.8       0.0
 1 F  py              0.0      25.0       2.1       0.0       0.0       0.0
 2 F  pz             25.0       0.0       0.0       0.0       0.0       0.0
 2 F  px              0.0      25.0       0.0       2.1       0.0       0.0
 2 F  py              0.0       0.0      46.1       0.2      23.8       0.0
 3 F  pz             25.0       0.0       0.0       0.0       0.0       0.0
 3 F  px              0.0      25.0       0.0       2.1       0.0       0.0
 3 F  py              0.0       0.0      46.1       0.2      23.8       0.0
 4 Ni s               0.0       0.0       0.0       0.0       0.0       0.2
 4 Ni px              0.0       0.0       0.0       3.1       0.0       0.0
 4 Ni py              0.0       0.0       3.1       0.0       0.0       0.0
 4 Ni dz2             0.0       0.0       0.0       0.0       0.0      99.7
 4 Ni dx2y2           0.0       0.0       0.0       0.0       4.6       0.0

                     30        31        32        33        34        35   
                  -0.42040  -0.42040  -0.41024  -0.41450   0.18326   0.35089
                   1.60000   1.60000   1.60000   1.60000   0.00000   0.00000
                  --------  --------  --------  --------  --------  --------
 0 F  s               0.0       0.0       0.0       0.0       0.1       0.0
 0 F  pz              0.0       0.0       0.0       0.0       0.0       0.3
 0 F  px              0.0       0.0       0.2       0.0       2.9       0.0
 1 F  s               0.0       0.0       0.0       0.0       0.1       0.0
 1 F  pz              0.0       0.0       0.0       0.0       0.0       0.3
 1 F  px              0.0       0.0       0.2       0.0       2.9       0.0
 2 F  s               0.0       0.0       0.0       0.0       0.1       0.0
 2 F  pz              0.0       0.0       0.0       0.0       0.0       0.3
 2 F  py              0.0       0.0       0.2       0.0       2.9       0.0
 3 F  s               0.0       0.0       0.0       0.0       0.1       0.0
 3 F  pz              0.0       0.0       0.0       0.0       0.0       0.3
 3 F  py              0.0       0.0       0.2       0.0       2.9       0.0
 4 Ni s               0.0       0.0       0.0       0.0      84.3       0.0
[...]
Pearson's correlation coefficient =    1.000 (should be close to 1)

------------------------------
AILFT MATRIX ELEMENTS (NEVPT2)
--------------------------------

Ligand field one-electron matrix VLFT (a.u.) : 
Orbital          dz2        dxz        dyz        dx2-y2     dxy
  dz2         -7.259348   0.000000  -0.000000  -0.000000   0.000000 
  dxz          0.000000  -7.257259  -0.000000  -0.000000   0.000000 
  dyz         -0.000000  -0.000000  -7.257259   0.000000  -0.000000 
  dx2-y2      -0.000000  -0.000000   0.000000  -7.246509   0.000000 
  dxy          0.000000   0.000000  -0.000000   0.000000  -7.250012 

-------------------------------------------------
Slater-Condon Parameters (electronic repulsion) : 
-------------------------------------------------
F2dd                    =  0.401322249 a.u. =    10.921 eV =   88080.1 cm**-1
F4dd                    =  0.245837735 a.u. =     6.690 eV =   53955.1 cm**-1
-------------------
Racah Parameters : 
-------------------
B                       =  0.005402974 a.u. =     0.147 eV =    1185.8 cm**-1
C                       =  0.019510931 a.u. =     0.531 eV =    4282.2 cm**-1
C/B                     =  3.611
-------------------------------------------------------------------------------

-----------------------------------------
The ligand field one electron eigenfunctions:
-----------------------------------------
Orbital    Energy (eV)  Energy(cm-1)      dz2        dxz        dyz        dx2-y2     dxy
    1          0.000        0.0         1.000000  -0.000000   0.000000   0.000000  -0.000000 
    2          0.057      458.6         0.000000  -0.493628  -0.869673   0.000000  -0.000000 
    3          0.057      458.6         0.000000   0.869673  -0.493628   0.000000  -0.000000 
    4          0.254     2049.1         0.000000   0.000000  -0.000000  -0.000001   1.000000 
    5          0.349     2817.8         0.000000   0.000000  -0.000000  -1.000000  -0.000001 
Ligand field orbitals were stored in run_D4h_Ni.nevpt2.lft.gbw

Calculating ligand field Hamiltonian matrices          ... done
Diagonalizing and fitting the ligand field Hamiltonian ... done
Calculating statistical parameters                     ... done

Reference energy AI-LFT =    -31.466161929 au
Reference energy AI     =    -31.466639872 au

------------------------------------------------
COMPARISON OF AB INITIO AND LIGAND FIELD RESULTS
------------------------------------------------

Block   1
---------
   AI-Root   0: E(AI)=   -0.000 eV -> LF-Root   0:     0.000 eV    S= 0.999 Delta=   -0.000 eV
   AI-Root   1: E(AI)=    0.000 eV -> LF-Root   1:     0.000 eV    S= 0.999 Delta=    0.000 eV
   AI-Root   2: E(AI)=    0.000 eV -> LF-Root   2:     0.022 eV    S= 1.000 Delta=   -0.022 eV
   AI-Root   3: E(AI)=    0.146 eV -> LF-Root   3:     0.117 eV    S= 1.000 Delta=    0.029 eV
   AI-Root   4: E(AI)=    0.165 eV -> LF-Root   4:     0.136 eV    S= 0.999 Delta=    0.029 eV
   AI-Root   5: E(AI)=    0.165 eV -> LF-Root   5:     0.136 eV    S= 0.999 Delta=    0.029 eV
   AI-Root   6: E(AI)=    0.166 eV -> LF-Root   6:     0.140 eV    S= 1.000 Delta=    0.027 eV
   AI-Root   7: E(AI)=    1.991 eV -> LF-Root   7:     2.091 eV    S= 1.000 Delta=   -0.099 eV
   AI-Root   8: E(AI)=    2.348 eV -> LF-Root   8:     2.409 eV    S= 1.000 Delta=   -0.061 eV
   AI-Root   9: E(AI)=    2.348 eV -> LF-Root   9:     2.409 eV    S= 1.000 Delta=   -0.061 eV
   RMS error for this block =     0.046 eV =     370.4 cm**-1 

Block   2
---------
   AI-Root   0: E(AI)=    1.718 eV -> LF-Root   0:     1.778 eV    S= 1.000 Delta=   -0.061 eV
   AI-Root   1: E(AI)=    1.798 eV -> LF-Root   1:     1.842 eV    S= 0.933 Delta=   -0.044 eV
   AI-Root   2: E(AI)=    1.798 eV -> LF-Root   2:     1.842 eV    S= 0.933 Delta=   -0.044 eV
   AI-Root   3: E(AI)=    1.861 eV -> LF-Root   3:     1.907 eV    S= 1.000 Delta=   -0.046 eV
   AI-Root   4: E(AI)=    1.961 eV -> LF-Root   4:     1.970 eV    S= 1.000 Delta=   -0.009 eV
   AI-Root   5: E(AI)=    2.649 eV -> LF-Root   5:     2.594 eV    S= 1.000 Delta=    0.056 eV
   AI-Root   6: E(AI)=    2.660 eV -> LF-Root   6:     2.600 eV    S= 1.000 Delta=    0.060 eV
   AI-Root   7: E(AI)=    2.925 eV -> LF-Root   7:     2.840 eV    S= 0.996 Delta=    0.085 eV
   AI-Root   8: E(AI)=    2.925 eV -> LF-Root   8:     2.840 eV    S= 0.996 Delta=    0.085 eV
   AI-Root   9: E(AI)=    3.088 eV -> LF-Root   9:     2.995 eV    S= 1.000 Delta=    0.093 eV
   AI-Root  10: E(AI)=    3.142 eV -> LF-Root  10:     3.028 eV    S= 1.000 Delta=    0.114 eV
   AI-Root  11: E(AI)=    3.221 eV -> LF-Root  11:     3.107 eV    S= 0.999 Delta=    0.114 eV
   AI-Root  12: E(AI)=    3.221 eV -> LF-Root  12:     3.107 eV    S= 0.999 Delta=    0.114 eV
   AI-Root  13: E(AI)=    3.250 eV -> LF-Root  13:     3.137 eV    S= 1.000 Delta=    0.113 eV
   AI-Root  14: E(AI)=    6.871 eV -> LF-Root  14:     7.049 eV    S= 1.000 Delta=   -0.178 eV
   RMS error for this block =     0.091 eV =     730.9 cm**-1 

Total RMS error g=     0.078 eV =     625.4 cm**-1
Note: Dropped RMS error for the reference energy.

Confidence intervals (95%) computed from the square root of the
diagonal elements of the covariance matrix:
H(dz2   ,dz2   )=  0.000745450 a.u. =     0.020 eV =     163.6 cm**-1
H(dxz   ,dz2   )=  0.000561116 a.u. =     0.015 eV =     123.2 cm**-1
H(dxz   ,dxz   )=  0.000745450 a.u. =     0.020 eV =     163.6 cm**-1
H(dyz   ,dz2   )=  0.000561116 a.u. =     0.015 eV =     123.2 cm**-1
H(dyz   ,dxz   )=  0.000561116 a.u. =     0.015 eV =     123.2 cm**-1
H(dyz   ,dyz   )=  0.000745450 a.u. =     0.020 eV =     163.6 cm**-1
H(dx2-y2,dz2   )=  0.000561116 a.u. =     0.015 eV =     123.2 cm**-1
H(dx2-y2,dxz   )=  0.000561116 a.u. =     0.015 eV =     123.2 cm**-1
H(dx2-y2,dyz   )=  0.000561116 a.u. =     0.015 eV =     123.2 cm**-1
H(dx2-y2,dx2-y2)=  0.000745450 a.u. =     0.020 eV =     163.6 cm**-1
H(dxy   ,dz2   )=  0.000561116 a.u. =     0.015 eV =     123.2 cm**-1
H(dxy   ,dxz   )=  0.000561116 a.u. =     0.015 eV =     123.2 cm**-1
H(dxy   ,dyz   )=  0.000561116 a.u. =     0.015 eV =     123.2 cm**-1
H(dxy   ,dx2-y2)=  0.000561116 a.u. =     0.015 eV =     123.2 cm**-1
H(dxy   ,dxy   )=  0.000745450 a.u. =     0.020 eV =     163.6 cm**-1
F2dd            =  0.003348621 a.u. =     0.091 eV =     734.9 cm**-1
F4dd            =  0.004327343 a.u. =     0.118 eV =     949.7 cm**-1
Pearson's correlation coefficient =    1.000 (should be close to 1)

----------------------------------------------
SPIN ORBIT COUPLING (based on CASSCF orbitals)
----------------------------------------------

AI-SOC-X integrals (cm-1)
                  0          1          2          3          4    
      0       0.000000  -0.000179 1135.012450   0.000000  -0.000000
      1       0.000179  -0.000000  -0.000000   0.000756 658.464300
      2     -1135.012450   0.000000  -0.000000 -658.568736  -0.000308
      3      -0.000000  -0.000756 658.568736   0.000000  -0.000000
      4       0.000000 -658.464300   0.000308   0.000000   0.000000
AI-SOC-Y integrals (cm-1)
                  0          1          2          3          4    
      0      -0.000000 -1135.012450  -0.000179  -0.000000   0.000000
      1     1135.012450   0.000000   0.000000 -658.568736  -0.000308
      2       0.000179  -0.000000  -0.000000  -0.000756 -658.464300
      3       0.000000 658.568736   0.000756  -0.000000   0.000000
      4      -0.000000   0.000308 658.464300  -0.000000  -0.000000
AI-SOC-Z integrals (cm-1)
                  0          1          2          3          4    
      0       0.000000  -0.000000  -0.000000   0.000000  -0.000000
      1       0.000000  -0.000000 -656.849696   0.000000   0.000000
      2       0.000000 656.849696  -0.000000  -0.000000   0.000000
      3      -0.000000  -0.000000   0.000000  -0.000000 -1321.697056
      4       0.000000  -0.000000  -0.000000 1321.697056  -0.000000

Fit to the SOC matrix elements
a = 15.000000
b =     1.223 eV =    9866.1 cm**-1
SOC constant zeta =     0.082 eV =     657.7 cm**-1


LF-SOC-X integrals (cm-1)
                  0          1          2          3          4    
      0       0.000000  -0.000000 1139.240061  -0.000000  -0.000000
      1       0.000000   0.000000  -0.000000  -0.000000 657.740556
      2     -1139.240061   0.000000   0.000000 -657.740556  -0.000000
      3       0.000000   0.000000 657.740556   0.000000  -0.000000
      4       0.000000 -657.740556   0.000000   0.000000   0.000000
LF-SOC-Y integrals (cm-1)
                  0          1          2          3          4    
      0       0.000000 -1139.240061  -0.000000  -0.000000  -0.000000
      1     1139.240061   0.000000  -0.000000 -657.740556  -0.000000
      2       0.000000   0.000000   0.000000  -0.000000 -657.740556
      3       0.000000 657.740556   0.000000   0.000000  -0.000000
      4       0.000000   0.000000 657.740556   0.000000   0.000000
LF-SOC-Z integrals (cm-1)
                  0          1          2          3          4    
      0       0.000000  -0.000000  -0.000000  -0.000000  -0.000000
      1       0.000000   0.000000 -657.740556  -0.000000  -0.000000
      2       0.000000 657.740556   0.000000  -0.000000  -0.000000
      3       0.000000   0.000000   0.000000   0.000000 -1315.481112
      4       0.000000   0.000000   0.000000 1315.481112   0.000000

RMS error of nonzero matrix elements =    3.1 cm**-1


-----SOC-CONSTANTS-----
---All Values in cm-1---
ZETA_D = 657.74 
------------------------




---AILFT COMPLETED SUCCESFULLY!---
-------------------------------------------------------------------------------
                     ORCA-AILFT TERMINATED SUCCESFULLY
-------------------------------------------------------------------------------


--------------
CASSCF TIMINGS
--------------

Total time                       ...        1.3 sec
Sum of individual times          ...        1.3 sec ( 98.2%)

Calculation of AO operators
Calculation of MO transformed quantities
Configuration interaction steps
   CI-setup phase                ...        0.7 sec ( 52.5%)
Orbital improvement steps
Properties                       ...        0.6 sec ( 45.4%)
   SOC integral calculation      ...        0.0 sec (  0.0%)
   SSC RMEs (incl. integrals)    ...        0.0 sec (  0.0%)
   SOC RMEs                      ...        0.0 sec (  0.2%)

Maximum memory used throughout the entire CASSCF-calculation: 50.7 MB

-------------------------   --------------------
FINAL SINGLE POINT ENERGY     -1918.706522890712
-------------------------   --------------------


------------------------------------------------------------------------------
                              ORCA PROPERTY CALCULATIONS
------------------------------------------------------------------------------

GBWName                                 ... run_D4h_Ni.gbw
Number of atoms                         ...      5
Number of basis functions               ...    183
Max core memory                         ...  14000 MB

Electric properties:
Dipole moment                           ... YES(DKH)
Quadrupole moment                       ...  NO
Static polarizability (Dipole/Dipole)   ...  NO
Static polarizability (Dipole/Quad.)    ...  NO
Static polarizability (Quad./Quad.)     ...  NO
Static polarizability (Velocity)        ...  NO

Atomic electric properties:
Dipole moment                           ...  NO
Quadrupole moment                       ...  NO
Static polarizability                   ...  NO

Choice of electric origin               ... Center of mass
Position of electric origin             ...     0.000000     0.000000     0.000000

General magnetic properties:
Magnetizability                         ...  NO

EPR properties:
g-Tensor (aka g-matrix)                 ...  NO
Zero-Field splitting spin-orbit         ...  NO
Zero-field splitting spin-spin          ...  NO
Hyperfine couplings                     ...  NO (   0 nuclei)
Quadrupole couplings                    ...  NO (   0 nuclei)
Contact density                         ...  NO (   0 nuclei)

NMR properties:
Chemical shifts                         ...  NO (   0 nuclei)
Spin-rotation constants                 ...  NO (   0 nuclei)
Spin-spin couplings                     ...  NO (   0 nuclei,    0 pairs)

Choice of magnetic origin               ... GIAO
Position of magnetic origin             ...     0.000000     0.000000     0.000000

Properties with geometric perturbations:
SCF Hessian                             ...  NO
IR spectrum                             ...  NO
VCD spectrum                            ...  NO
X-ray spectroscopy properties:
SCF XES/XAS/RIXS spectra                ...  NO

DKH transformation order                ... Second
Note: picture-change corrections are only included
      for the properties annotated with "YES(DKH)"!


-------------
DIPOLE MOMENT
-------------

Method             : CASSCF
Type of density    : Electron Density
Level              : Unrelaxed density
State              :  -1
Multiplicity       :  -1
Irrep              :   0
Energy             : -1917.0136640272125987 Eh
Relativity type    : 
Basis              : AO
                                X                 Y                 Z
Electronic contribution:     -0.000000000      -0.000000000      -0.000000000
Nuclear contribution   :      0.000000000       0.000000000       0.000000000
                        -----------------------------------------
Total Dipole Moment    :     -0.000000000      -0.000000000      -0.000000000
                        -----------------------------------------
Magnitude (a.u.)       :      0.000000000
Magnitude (Debye)      :      0.000000001



--------------------
Rotational spectrum 
--------------------
 
Rotational constants in cm-1:             0.049297             0.049297             0.024648 
Rotational constants in MHz :          1477.873342          1477.873342           738.936671 

Dipole components along the rotational axes: 
x,y,z [a.u.] :    -0.000000    -0.000000    -0.000000 
x,y,z [Debye]:    -0.000000    -0.000000    -0.000000 

 

Dipole moment calculation done in   0.0 sec 

Maximum memory used throughout the entire PROP-calculation: 21.9 MB

--------------------------------
SUGGESTED CITATIONS FOR THIS RUN
--------------------------------

Below you find a list of papers that are relevant to this ORCA run
We neither can nor want to force you to cite these papers, but we appreciate if you do
You receive ORCA, which is the product of decades of hard work by many enthusiastic individuals, for free
The only thing we kindly ask in return is that you cite our papers,
We deeply appreciate it, if you show your appreciation for ORCA by not just citing the generic ORCA reference.

Please note that relegating all ORCA citations to the supporting information does *not* help us.
SI sections are not indexed - citations you put there will not count into any citation statistics
But we need these citations in order to attract the funding resources that allow us to do what we are doing

Therefore, if you are a happy ORCA user, please consider citing a few of the papers listed below in the main body of your paper

In addition to the list printed below, the program has created the file run_D4h_Ni.bibtex that contains the list in bibtex format
You can import this file easily into all common literature databanks and citation aid programs


List of essential papers. We consider these as the minimum necessary citations

  1. Neese,F.
     Software update: the ORCA program system, version 5.0
     WIRES Comput. Molec. Sci., 2022 12(1)e1606
     doi.org/10.1002/wcms.1606

List of papers to cite with high priority. The work reported in these papers was absolutely
necessary for this run to complete.
Our perspective: the developers of density functionals and basis sets usually get cited in chemistry papers
Good! But without the algorithms to do something with them, the functionals or basis sets would not do anything.
Hence, in our opinion, the algorithm design and method developments papers are equally worthy of getting cited

  1. Ganyushin,D.; Neese,F.
     First-principles calculations of zero-field splitting parameters
     J. Chem. Phys., 2006 125(2)Art. No. 024103
     doi.org/10.1063/1.2213976
  2. Atanasov,M.; Ganyushin,D.; Sivalingam,K.; Neese,F.
     A Modern First-Principles View on Ligand Field Theory Through the Eyes of Correlated Multireference Wavefunctions
     Struct. Bond., 2012 142 149-220
     doi.org/10.1007/430_2011_57
  3. Stoychev,G.L.; Auer,A.A.; Neese,F.
     Automatic Generation of Auxiliary Basis Sets
     J. Theo. Comp. Chem., 2017 13 554-562
     doi.org/10.1021/acs.jctc.6b01041
  4. Kollmar,C.; Sivalingam,K.; Helmich-Paris,B.; Angeli,C.; Neese,F.
     A perturbation-based super-CI approach for the orbital optimization of a CASSCF wave function
     J. Comput. Chem., 2019 40 1463-1470
     doi.org/10.1002/jcc.25801
  5. Lang,L.; Neese,F.
     Spin-dependent properties in the framework of the dynamic correlation dressed complete active space method
     J. Chem. Phys., 2019 150 
     doi.org/10.1063/1.5085203
  6. Kollmar,C.; Sivalingam,K.; Neese,F.
     An efficient implementation of the NEVPT2 and CASPT2 methods avoiding higher-order density matrices
     J. Chem. Phys., 2021 155 234104
     doi.org/10.1063/5.0072129
  7. Guo,Y.; Sivalingam,K.; Neese,F.
     Approximations of density matrices in N-electron valence state second-order perturbation theory (NEVPT2). I. Revisiting the NEVPT2 construction
     J. Chem. Phys., 2021 154 214111
  8. Neese,F.
     The SHARK Integral Generation and Digestion System
     J. Comp. Chem., 2022  1-16
     doi.org/10.1002/jcc.26942
  9. Ugandi,M.; Roemelt,M.
     A recursive formulation of one-electron coupling coefficients for spin-adapted configuration interaction calculations featuring many unpaired electrons
     Int. J. Quantum Chem., 2023 123 e27045
     doi.org/10.1002/qua.27045

List of suggested additional citations. These are papers that are important in the 'surrounding' of 
of this run, or papers that preceded the highly important papers. If you like your results we are grateful for a citation.

  1. Neese,F.
     The ORCA program system
     WIRES Comput. Molec. Sci., 2012 2(1)73-78
     doi.org/10.1002/wcms.81
  2. Schapiro,I.; Sivalingam,K.; Neese,F.
     Assessment of n-Electron Valence State Perturbation Theory for Vertical Excitation Energies
     J. Theo. Comp. Chem., 2013 9 3567-3580
     doi.org/10.1021/ct400136y
  3. Neese,F.
     Software update: the ORCA program system, version 4.0
     WIRES Comput. Molec. Sci., 2018 8(1)1-6
     doi.org/10.1002/wcms.1327
  4. Neese,F.; Wennmohs,F.; Becker,U.; Riplinger,C.
     The ORCA quantum chemistry program package
     J. Chem. Phys., 2020 152 Art. No. L224108
     doi.org/10.1063/5.0004608
  5. Guo,Y.; Sivalingam,K.; Kollmar,C.; Neese,F.
     Approximations of density matrices in N-electron valence state second-order perturbation theory (NEVPT2). II. The full rank NEVPT2 (FR-NEVPT2) formulation
     J. Chem. Phys., 2021 154 214113

List of optional additional citations

  1. Neese,F.
     Approximate second-order SCF convergence for spin unrestricted wavefunctions
     Chem. Phys. Lett., 2000 325(1-3)93-98
     doi.org/10.1016/s0009-2614(00)00662-x

Timings for individual modules:

Sum of individual times          ...      115.736 sec (=   1.929 min)
Startup calculation              ...        0.357 sec (=   0.006 min)   0.3 %
Relativistic integrals           ...        0.210 sec (=   0.003 min)   0.2 %
SCF iterations                   ...        0.118 sec (=   0.002 min)   0.1 %
CASSCF iterations                ...       93.750 sec (=   1.562 min)  81.0 %
Property integrals               ...       21.018 sec (=   0.350 min)  18.2 %
Property calculations            ...        0.284 sec (=   0.005 min)   0.2 %
                             ****ORCA TERMINATED NORMALLY****
TOTAL RUN TIME: 0 days 0 hours 1 minutes 55 seconds 862 msec
