
                                 *****************
                                 * O   R   C   A *
                                 *****************

                                            #,                                       
                                            ###                                      
                                            ####                                     
                                            #####                                    
                                            ######                                   
                                           ########,                                 
                                     ,,################,,,,,                         
                               ,,#################################,,                 
                          ,,##########################################,,             
                       ,#########################################, ''#####,          
                    ,#############################################,,   '####,        
                  ,##################################################,,,,####,       
                ,###########''''           ''''###############################       
              ,#####''   ,,,,##########,,,,          '''####'''          '####       
            ,##' ,,,,###########################,,,                        '##       
           ' ,,###''''                  '''############,,,                           
         ,,##''                                '''############,,,,        ,,,,,,###''
      ,#''                                            '''#######################'''  
     '                                                          ''''####''''         
             ,#######,   #######,   ,#######,      ##                                
            ,#'     '#,  ##    ##  ,#'     '#,    #''#        ,####,   ,####,        
            ##       ##  ##   ,#'  ##            #'  '#       #'       #'  '#        
            ##       ##  #######   ##           ,######,      #####,   #    #        
            '#,     ,#'  ##    ##  '#,     ,#' ,#      #,     #,   #   #,  ,#        
             '#######'   ##     ##  '#######'  #'      '#     '####' # '####'        



                #########################################################
                #                        -***-                          #
                #          Department of theory and spectroscopy        #
                #                                                       #
                #                      Frank Neese                      #
                #                                                       #
                #     Directorship, Architecture, Infrastructure        #
                #                    SHARK, DRIVERS                     #
                #        Core code/Algorithms in most modules           #
                #                                                       #
                #        Max Planck Institute fuer Kohlenforschung      #
                #                Kaiser Wilhelm Platz 1                 #
                #                 D-45470 Muelheim/Ruhr                 #
                #                      Germany                          #
                #                                                       #
                #                  All rights reserved                  #
                #                        -***-                          #
                #########################################################


                         Program Version 6.0.0  -   RELEASE  -


 With contributions from (in alphabetic order):
   Daniel Aravena         : Magnetic Suceptibility
   Michael Atanasov       : Ab Initio Ligand Field Theory (pilot matlab implementation)
   Alexander A. Auer      : GIAO ZORA, VPT2 properties, NMR spectrum
   Ute Becker             : All parallelization in ORCA, NUMFREQ, NUMCALC
   Giovanni Bistoni       : ED, misc. LED, open-shell LED, HFLD
   Martin Brehm           : Molecular dynamics
   Dmytro Bykov           : pre 5.0 version of the SCF Hessian
   Marcos Casanova-Páez   : Triplet and SCS-CIS(D). UHF-(DLPNO)-IP/EA/STEOM-CCSD. UHF-CVS-IP/STEOM-CCSD
   Vijay G. Chilkuri      : MRCI spin determinant printing, contributions to CSF-ICE
   Pauline Colinet        : FMM embedding
   Dipayan Datta          : RHF DLPNO-CCSD density
   Achintya Kumar Dutta   : EOM-CC, STEOM-CC
   Nicolas Foglia         : Exact transition moments, OPA infrastructure, MCD improvements
   Dmitry Ganyushin       : Spin-Orbit,Spin-Spin,Magnetic field MRCI
   Miquel Garcia          : C-PCM and meta-GGA Hessian, CCSD/C-PCM, Gaussian charge scheme
   Tiago L. C. Gouveia    : GS-ROHF, GS-ROCIS
   Yang Guo               : DLPNO-NEVPT2, F12-NEVPT2, CIM, IAO-localization
   Andreas Hansen         : Spin unrestricted coupled pair/coupled cluster methods
   Ingolf Harden          : AUTO-CI MPn and infrastructure 
   Benjamin Helmich-Paris : MC-RPA, TRAH-(SCF,CASSCF), AVAS, COSX integrals, SCF dyn. polar.
   Lee Huntington         : MR-EOM, pCC
   Robert Izsak           : Overlap fitted RIJCOSX, COSX-SCS-MP3, EOM
   Riya Kayal             : Wick's Theorem for AUTO-CI, AUTO-CI UHF-CCSDT
   Emily Kempfer          : AUTO-CI, RHF CISDT and CCSDT
   Christian Kollmar      : KDIIS, OOCD, Brueckner-CCSD(T), CCSD density, CASPT2, CASPT2-K, improved NEVPT2
   Axel Koslowski         : Symmetry handling
   Simone Kossmann        : Meta GGA functionals, TD-DFT gradient, OOMP2, (MP2 Hessian; deprecated post 5.0)
   Lucas Lang             : DCDCAS
   Marvin Lechner         : AUTO-CI (C++ implementation), FIC-MRCC
   Spencer Leger          : CASSCF response
   Dagmar Lenk            : GEPOL surface, SMD, ORCA-2-JSON
   Dimitrios Liakos       : Extrapolation schemes; Compound Job, initial MDCI parallelization
   Dimitrios Manganas     : Further ROCIS development; embedding schemes. LFT, Crystal Embedding
   Dimitrios Pantazis     : SARC Basis sets
   Anastasios Papadopoulos: AUTO-CI, single reference methods and gradients
   Taras Petrenko         : pre 6.0 DFT Hessian and TD-DFT gradient, (ASA, deprecated), ECA, 1-Electron XAS/XES, NRVS
   Peter Pinski           : DLPNO-MP2, DLPNO-MP2 Gradient
   Christoph Reimann      : Effective Core Potentials
   Marius Retegan         : Local ZFS, SOC
   Christoph Riplinger    : Optimizer, TS searches, QM/MM, DLPNO-CCSD(T), (RO)-DLPNO pert. Triples
   Michael Roemelt        : Original ROCIS implementation
   Masaaki Saitow         : Open-shell DLPNO-CCSD energy and density
   Barbara Sandhoefer     : DKH picture change effects
   Kantharuban Sivalingam : CASSCF convergence/infrastructure, NEVPT2 and variants, FIC-MRCI
   Bernardo de Souza      : ESD, SOC TD-DFT
   Georgi Stoychev        : AutoAux, RI-MP2 NMR, DLPNO-MP2 response, X2C
   Van Anh Tran           : RI-MP2 g-tensors
   Willem Van den Heuvel  : Paramagnetic NMR
   Zikuan Wang            : NOTCH, Electric field optimization 
   Frank Wennmohs         : Technical directorship and infrastructure
   Hang Xu                : AUTO-CI-Response properties 


 We gratefully acknowledge several colleagues who have allowed us to
 interface, adapt or use parts of their codes:
   Stefan Grimme, W. Hujo, H. Kruse, P. Pracht,  : VdW corrections, initial TS optimization,
                  C. Bannwarth, S. Ehlert,         DFT functionals, gCP, sTDA/sTD-DF
                  L. Wittmann, M. Mueller
   Ed Valeev, F. Pavosevic, A. Kumar             : LibInt (2-el integral package), F12 methods
   Garnet Chan, S. Sharma, J. Yang, R. Olivares  : DMRG
   Ulf Ekstrom                                   : XCFun DFT Library
   Mihaly Kallay                                 : mrcc  (arbitrary order and MRCC methods)
   Frank Weinhold                                : gennbo (NPA and NBO analysis)
   Simon Mueller                                 : openCOSMO-RS
   Christopher J. Cramer and Donald G. Truhlar   : smd solvation model
   Lars Goerigk                                  : TD-DFT with DH, B97 family of functionals
   V. Asgeirsson, H. Jonsson                     : NEB implementation
   FAccTs GmbH                                   : IRC, NEB, NEB-TS, DLPNO-Multilevel, CI-OPT
                                                   MM, QMMM, 2- and 3-layer-ONIOM, Crystal-QMMM,
                                                   LR-CPCM, SF, NACMEs, symmetry and pop. for TD-DFT,
                                                   nearIR, NL-DFT gradient (VV10), updates on ESD,
                                                   ML-optimized integration grids, MBIS, APM,
                                                   GOAT, DOCKER, SOLVATOR, interface openCOSMO-RS
   S Lehtola, MJT Oliveira, MAL Marques          : LibXC Library
   Liviu Ungur et al                             : ANISO software


 Your calculation uses the libint2 library for the computation of 2-el integrals
 For citations please refer to: http://libint.valeyev.net

 Your ORCA version has been built with support for libXC version: 6.2.2
 For citations please refer to: https://libxc.gitlab.io

 This ORCA versions uses:
   CBLAS   interface :  Fast vector & matrix operations
   LAPACKE interface :  Fast linear algebra routines
   SCALAPACK package :  Parallel linear algebra routines
   Shared memory     :  Shared parallel matrices
   BLAS/LAPACK       :  OpenBLAS 0.3.27  USE64BITINT DYNAMIC_ARCH NO_AFFINITY Zen SINGLE_THREADED
        Core in use  :  Zen
   Copyright (c) 2011-2014, The OpenBLAS Project


NOTE: MaxCore=14000 MB was set to SCF,MP2,MDCI,CIPSI,MRCI and CIS
      => If you want to overwrite this, your respective input block should be placed after the MaxCore statement
================================================================================

----- Orbital basis set information -----
Your calculation utilizes the basis: DKH-def2-TZVP
   Exponents from def2-TZVP [F. Weigend and R. Ahlrichs, Phys. Chem. Chem. Phys. 7, 3297 (2005)],
   recontracted for DKH2 by D. A. Pantazis.

The basis set includes element-specific modifications.

Your calculation utilizes the basis: SARC-DKH-TZVP 
   Rb-Xe:  J. D. Rolfes, F. Neese and D. A. Pantazis, J. Comput. Chem. 41, 1842 (2020).
   La-Lu:  D. A. Pantazis and F. Neese, J. Chem. Theory Comput. 5, 2229 (2009).
   Hf-Hg:  D. A. Pantazis, X. Y. Chen, C. R. Landis and F. Neese, J. Chem. Theory Comput. 4, 908 (2008).
   Tl-Rn:  D. A. Pantazis and F. Neese, Theor. Chem. Acc. 131, 1292 (2012).
   Ac-Lr:  D. A. Pantazis and F. Neese, J. Chem. Theory Comput. 7, 677 (2011).

----- AuxJ basis set information -----
Your calculation utilizes the AutoAux generation procedure.
  G. L. Stoychev, A. A. Auer, F. Neese, J. Chem. Theory Comput. 13, 554 (2017)

----- AuxC basis set information -----
Your calculation utilizes the AutoAux generation procedure.
  G. L. Stoychev, A. A. Auer, F. Neese, J. Chem. Theory Comput. 13, 554 (2017)

----- AuxJK basis set information -----
Your calculation utilizes the AutoAux generation procedure.
  G. L. Stoychev, A. A. Auer, F. Neese, J. Chem. Theory Comput. 13, 554 (2017)

----- AuxX basis set information -----
Your calculation utilizes the AutoAux generation procedure.
  G. L. Stoychev, A. A. Auer, F. Neese, J. Chem. Theory Comput. 13, 554 (2017)

================================================================================
                                        WARNINGS
                       Please study these warnings very carefully!
================================================================================


WARNING: Relativistic property calculations require picture change transformations!
  ===> : Setting %rel PictureChange = 2

IMPORTANT NOTE: CASSCF must signal convergence for a subsequent CASPT2/NEVPT2! 
                Set maxiter=1 to run CASPT2/NEVPT2 with arbitrary orbitals.


================================================================================
                                       INPUT FILE
================================================================================
NAME = run_D4h_Pd.inp
|  1>   !DKH DKH-def2-TZVP AutoAux TightSCF
|  2> 
|  3>   %maxcore 14000
|  4> 
|  5>   %basis
|  6>   newgto Pd "SARC-DKH-TZVP" end
|  7>   end
|  8> 
|  9>   %scf rotate
| 10>    {18,23}
| 11>    {19,24}
| 12>    {20,25}
| 13>    {21,26}
| 14>    {22,31}
| 15>    end
| 16>   end
| 17> 
| 18>   %casscf
| 19>     nel 8
| 20>     norb 5
| 21>     mult 3, 1
| 22>     nroots 10, 15
| 23>     trafostep RI
| 24>     etol 1e-6
| 25>     actorbs dorbs
| 26>     nevpt2 sc
| 27>     printlevel 3
| 28>     maxiter 10000
| 29>    rel
| 30>      dosoc true
| 31>    end
| 32>   end
| 33> 
| 34>   *xyz -2 3
| 35>   F    3.0   0.0   0.0
| 36>   F   -3.0   0.0   0.0
| 37>   F    0.0   3.0   0.0
| 38>   F    0.0   -3.0   0.0
| 39>   Pd   0.0   0.0   0.0
| 40>   *
| 41> 
| 42> 
| 43>                          ****END OF INPUT****
================================================================================

                       ****************************
                       * Single Point Calculation *
                       ****************************

---------------------------------
CARTESIAN COORDINATES (ANGSTROEM)
---------------------------------
  F      3.000000    0.000000    0.000000
  F     -3.000000    0.000000    0.000000
  F      0.000000    3.000000    0.000000
  F      0.000000   -3.000000    0.000000
  Pd     0.000000    0.000000    0.000000

----------------------------
CARTESIAN COORDINATES (A.U.)
----------------------------
  NO LB      ZA    FRAG     MASS         X           Y           Z
   0 F     9.0000    0    18.998    5.669178    0.000000    0.000000
   1 F     9.0000    0    18.998   -5.669178    0.000000    0.000000
   2 F     9.0000    0    18.998    0.000000    5.669178    0.000000
   3 F     9.0000    0    18.998    0.000000   -5.669178    0.000000
   4 Pd   46.0000    0   106.400    0.000000    0.000000    0.000000

--------------------------------
INTERNAL COORDINATES (ANGSTROEM)
--------------------------------
 F      0   0   0     0.000000000000     0.00000000     0.00000000
 F      1   0   0     6.000000000000     0.00000000     0.00000000
 F      1   2   0     4.242640687119    45.00000000     0.00000000
 F      1   2   3     4.242640687119    45.00000000   180.00000000
 Pd     1   2   3     3.000000000000     0.00000000     0.00000000

---------------------------
INTERNAL COORDINATES (A.U.)
---------------------------
 F      0   0   0     0.000000000000     0.00000000     0.00000000
 F      1   0   0    11.338356803528     0.00000000     0.00000000
 F      1   2   0     8.017428983287    45.00000000     0.00000000
 F      1   2   3     8.017428983287    45.00000000   180.00000000
 Pd     1   2   3     5.669178401764     0.00000000     0.00000000

---------------------
BASIS SET INFORMATION
---------------------
There are 2 groups of distinct atoms

 Group   1 Type F   : 11s6p2d1f contracted to 6s3p2d1f pattern {611111/411/11/1}
 Group   2 Type Pd  : 22s15p9d1f contracted to 15s10p5d1f pattern {811111111111111/6111111111/51111/1}

Atom   0F    basis set group =>   1
Atom   1F    basis set group =>   1
Atom   2F    basis set group =>   1
Atom   3F    basis set group =>   1
Atom   4Pd   basis set group =>   2
---------------------------------
AUXILIARY/J BASIS SET INFORMATION
---------------------------------
There are 2 groups of distinct atoms

 Group   1 Type F   : 16s13p12d7f3g contracted to 16s13p12d7f3g pattern {1111111111111111/1111111111111/111111111111/1111111/111}
 Group   2 Type Pd  : 27s24p23d22f15g5h contracted to 27s24p23d22f15g5h pattern {111111111111111111111111111/111111111111111111111111/11111111111111111111111/1111111111111111111111/111111111111111/11111}

Atom   0F    basis set group =>   1
Atom   1F    basis set group =>   1
Atom   2F    basis set group =>   1
Atom   3F    basis set group =>   1
Atom   4Pd   basis set group =>   2
---------------------------------
AUXILIARY/C BASIS SET INFORMATION
---------------------------------
There are 2 groups of distinct atoms

 Group   1 Type F   : 16s13p12d7f3g contracted to 16s13p12d7f3g pattern {1111111111111111/1111111111111/111111111111/1111111/111}
 Group   2 Type Pd  : 27s24p23d22f15g5h contracted to 27s24p23d22f15g5h pattern {111111111111111111111111111/111111111111111111111111/11111111111111111111111/1111111111111111111111/111111111111111/11111}

Atom   0F    basis set group =>   1
Atom   1F    basis set group =>   1
Atom   2F    basis set group =>   1
Atom   3F    basis set group =>   1
Atom   4Pd   basis set group =>   2
----------------------------------
AUXILIARY/JK BASIS SET INFORMATION
----------------------------------
There are 2 groups of distinct atoms

 Group   1 Type F   : 16s13p12d7f3g contracted to 16s13p12d7f3g pattern {1111111111111111/1111111111111/111111111111/1111111/111}
 Group   2 Type Pd  : 27s24p23d22f15g5h contracted to 27s24p23d22f15g5h pattern {111111111111111111111111111/111111111111111111111111/11111111111111111111111/1111111111111111111111/111111111111111/11111}

Atom   0F    basis set group =>   1
Atom   1F    basis set group =>   1
Atom   2F    basis set group =>   1
Atom   3F    basis set group =>   1
Atom   4Pd   basis set group =>   2
---------------------------------
AUXILIARY/X BASIS SET INFORMATION
---------------------------------
There are 2 groups of distinct atoms

 Group   1 Type F   : 16s13p12d7f3g contracted to 16s13p12d7f3g pattern {1111111111111111/1111111111111/111111111111/1111111/111}
 Group   2 Type Pd  : 27s24p23d22f15g5h contracted to 27s24p23d22f15g5h pattern {111111111111111111111111111/111111111111111111111111/11111111111111111111111/1111111111111111111111/111111111111111/11111}

Atom   0F    basis set group =>   1
Atom   1F    basis set group =>   1
Atom   2F    basis set group =>   1
Atom   3F    basis set group =>   1
Atom   4Pd   basis set group =>   2
------------------------------------------------------------------------------
                             ORCA STARTUP CALCULATIONS
------------------------------------------------------------------------------
------------------------------------------------------------------------------
                   ___                                                        
                  /   \      - P O W E R E D   B Y -                         
                 /     \                                                     
                 |  |  |   _    _      __       _____    __    __             
                 |  |  |  | |  | |    /  \     |  _  \  |  |  /  |          
                  \  \/   | |  | |   /    \    | | | |  |  | /  /          
                 / \  \   | |__| |  /  /\  \   | |_| |  |  |/  /          
                |  |  |   |  __  | /  /__\  \  |    /   |      \           
                |  |  |   | |  | | |   __   |  |    \   |  |\   \          
                \     /   | |  | | |  |  |  |  | |\  \  |  | \   \       
                 \___/    |_|  |_| |__|  |__|  |_| \__\ |__|  \__/        
                                                                              
                      - O R C A' S   B I G   F R I E N D -                    
                                      &                                       
                       - I N T E G R A L  F E E D E R -                       
                                                                              
 v1 FN, 2020, v2 2021, v3 2022-2024                                           
------------------------------------------------------------------------------


----------------------
SHARK INTEGRAL PACKAGE
----------------------

Number of atoms                             ...      5
Number of basis functions                   ...    205
Number of shells                            ...     79
Maximum angular momentum                    ...      3
Integral batch strategy                     ... SHARK/LIBINT Hybrid
RI-J (if used) integral strategy            ... SPLIT-RIJ (Revised 2003 algorithm where possible)
Printlevel                                  ...      1
Contraction scheme used                     ... SEGMENTED contraction
Prescreening option                         ... SCHWARTZ
   Thresh                                   ... 2.500e-11
   Tcut                                     ... 2.500e-12
   Tpresel                                  ... 2.500e-12 
Coulomb Range Separation                    ... NOT USED
Exchange Range Separation                   ... NOT USED
Multipole approximations                    ... NOT USED
Finite Nucleus Model                        ... NOT USED
CABS basis                                  ... NOT available
Auxiliary Coulomb fitting basis             ... AVAILABLE
   # of basis functions in Aux-J            ...   1322
   # of shells in Aux-J                     ...    320
   Maximum angular momentum in Aux-J        ...      5
Auxiliary J/K fitting basis                 ... AVAILABLE
   # of basis functions in Aux-JK           ...   1322
   # of shells in Aux-JK                    ...    320
   Maximum angular momentum in Aux-JK       ...      5
Auxiliary Correlation fitting basis         ... AVAILABLE
   # of basis functions in Aux-C            ...   1322
   # of shells in Aux-C                     ...    320
   Maximum angular momentum in Aux-C        ...      5
Auxiliary 'external' fitting basis          ... NOT available

Checking pre-screening integrals            ... done (  0.0 sec) Dimension = 79
Check shell pair data                       ... done (  0.0 sec)
Shell pair information
Shell pair cut-off parameter TPreSel        ...   2.5e-12
Total number of shell pairs                 ...      3160
Shell pairs after pre-screening             ...      2032
Total number of primitive shell pairs       ...      8265
Primitive shell pairs kept                  ...      4081
          la=0 lb=0:    446 shell pairs
          la=1 lb=0:    602 shell pairs
          la=1 lb=1:    209 shell pairs
          la=2 lb=0:    299 shell pairs
          la=2 lb=1:    214 shell pairs
          la=2 lb=2:     63 shell pairs
          la=3 lb=0:     83 shell pairs
          la=3 lb=1:     74 shell pairs
          la=3 lb=2:     33 shell pairs
          la=3 lb=3:      9 shell pairs

Calculating one electron integrals          ... done (  0.0 sec)
Calculating RI/J V-Matrix + Cholesky decomp.... done (  0.0 sec)
Calculating RI/JK V-Matrix + Cholesky decomp... done (  0.0 sec)
Calculating RI/C V-Matrix + Cholesky decomp.... done (  0.0 sec)
Calculating Nuclear repulsion               ... done (  0.0 sec) ENN=    346.805561189036 Eh

Diagonalization of the overlap matrix:
Smallest eigenvalue                        ... 7.119e-04
Time for diagonalization                   ...    0.002 sec
Threshold for overlap eigenvalues          ... 1.000e-07
Number of eigenvalues below threshold      ... 0
Time for construction of square roots      ...    0.001 sec
Total time needed                          ...    0.003 sec

-------------------
DFT GRID GENERATION
-------------------

General Integration Accuracy     IntAcc      ... 4.388
Radial Grid Type                 RadialGrid  ... OptM3 with GC (2021)
Angular Grid (max. ang.)         AngularGrid ... 4 (Lebedev-302)
Angular grid pruning method      GridPruning ... 4 (adaptive)
Weight generation scheme         WeightScheme... mBecke (2022)
Basis function cutoff            BFCut       ... 1.0000e-11
Integration weight cutoff        WCut        ... 1.0000e-14
Partially contracted basis set               ... off
Rotationally invariant grid construction     ... off
Angular grids for H and He will be reduced by one unit
Core-polarized basis detected: some atoms will have their core
                               angular grid increased.
Steep s-basis detected: some atoms will have their radial
                        grid points doubled.

Total number of grid points                  ...    51908
Total number of batches                      ...      814
Average number of points per batch           ...       63
Average number of grid points per atom       ...    10382
Initializing property integral containers    ... done (  0.0 sec)

SHARK setup successfully completed in   0.9 seconds

Maximum memory used throughout the entire STARTUP-calculation: 39.2 MB
------------------------------------------------------------------------------
                          ORCA RELATIVISTIC HAMILTONIAN
------------------------------------------------------------------------------

Relativistic Method            ... DKH
Order of DKH treatment         ...   2
Treatment of potential         ... V(e,N)
Eps parameter for DKH          ...   0.00000000010000
Nucleus model                  ... Point Nucleus
Speed of light used            ... 137.03598950000000


            ************************************************
            *        DOUGLAS-KROLL-HESS HAMILTONIAN        *
            *   Programmed by FN according to literature   *
            *        procedures. Special thanks to         *
            *       B.A. Hess, M. Reiher and A. Wolf       *
            *     University Erlangen-Nuernberg/Bonn       *
            ************************************************

Uncontracting the basis (first version)        ... done
Number of contracted basis functions           ...  205
Number of uncontracted basis functions         ...  303
Initializing the DKH file                      ... done
Calculating the relativistic integrals         ... done
Storing DKH matrices                           ... done
Computing the DKH transformation               ... done
Storing the transformation variables           ... done
Transforming V and pVp to p**2 space           ... done
First transformation of V and pVp              ... done
Second transformation of Veff                  ... done
Adding kinetic energy                          ... done
Back transformation of Veff to r-space         ... done
Recovering DKH matrices                        ... done
Recontracting the H-matrix (first version)     ... done
Computing the DKH correction to the H-matrix   ... done
Reading the original H-matrix                  ... done
Adding DKH correction to the H-matrix          ... done
Storing the new modified H-matrix              ... done

Maximum memory used throughout the entire REL-calculation: 25.8 MB
-------------------------------------------------------------------------------
                                 ORCA GUESS
                   Start orbitals & Density for SCF / CASSCF
-------------------------------------------------------------------------------

------------
SCF SETTINGS
------------
Hamiltonian:
 Ab initio Hamiltonian  Method          .... Hartree-Fock(GTOs)

Relativistic Settings:
 Scalar relativistic method             .... Douglas-Kroll-Hess
 Order of DKH procedure    Order        ....    2
 Mode of DKH-treatment                  .... V=V(e,N)
 Speed of light used       Velit        ....       137.035989
 Cutoff-constant           Eps          ....            1e-10 


General Settings:
 Integral files         IntName         .... run_D4h_Pd
 Hartree-Fock type      HFTyp           .... CASSCF
 Total Charge           Charge          ....   -2
 Multiplicity           Mult            ....    3
 Number of Electrons    NEL             ....   84
 Basis Dimension        Dim             ....  205
 Nuclear Repulsion      ENuc            ....    346.8055611890 Eh

------------------------------
INITIAL GUESS: MODEL POTENTIAL
------------------------------
Loading DKH relativistic densities                 ... done
Calculating cut-offs                               ... done
Initializing the effective Hamiltonian             ... done
Setting up the integral package (SHARK)            ... done
Starting the Coulomb interaction                   ... done (   0.0 sec)
Making the grid                                    ... done (   0.1 sec)
Mapping shells                                     ... done
Starting the XC term evaluation                    ... done (   0.0 sec)
Transforming the Hamiltonian                       ... done (   0.0 sec)
Diagonalizing the Hamiltonian                      ... done (   0.0 sec)
Back transforming the eigenvectors                 ... done (   0.0 sec)
Now organizing SCF variables                       ... 
-----------------
ORBITAL ROTATIONS
-----------------
  Rotation  18(0)   23(0) cos(t)= 0.000000  sin(t)= 1.000000
  Orbital Energies were swapped
  Rotation  19(0)   24(0) cos(t)= 0.000000  sin(t)= 1.000000
  Orbital Energies were swapped
  Rotation  20(0)   25(0) cos(t)= 0.000000  sin(t)= 1.000000
  Orbital Energies were swapped
  Rotation  21(0)   26(0) cos(t)= 0.000000  sin(t)= 1.000000
  Orbital Energies were swapped
  Rotation  22(0)   31(0) cos(t)= 0.000000  sin(t)= 1.000000
  Orbital Energies were swapped
done
                      ------------------
                      INITIAL GUESS DONE (   0.2 sec)
                      ------------------
             **** ENERGY FILE WAS UPDATED (run_D4h_Pd.en.tmp) ****
Finished Guess after   0.2 sec
Maximum memory used throughout the entire GUESS-calculation: 20.5 MB
-------------------------------------------------------------------------------
                              ORCA-CASSCF
-------------------------------------------------------------------------------

Setting up the integral package     ... Building the CAS space              ... done (10 configurations for Mult=3)
Building the CAS space              ... done (15 configurations for Mult=1)
Memory for address arrays  		      ... done
Make address arrays			      ... done
Memory for buffers 			      ... done
Setting up spin-function prototypes	      ... (MAXOPEN=2) 2 4 done
Trivial cases - DOMO's			      ... done (  0.0 MB)
Number of open shells			    ...  2
domo->virtual excitations			... done (  0.0 MB)
domo->somo excitations				... done (  0.0 MB)
somo->virtual excitations			... done (  0.0 MB)
somo->somo excitations				... done (  0.0 MB)
Coupling container construction done
Memory for address arrays  		      ... done
Make address arrays			      ... done
Memory for buffers 			      ... done
Setting up spin-function prototypes	      ... (MAXOPEN=2) 0 2 4 done
Trivial cases - DOMO's			      ... done (  0.0 MB)
Number of open shells			    ...  0
domo->virtual excitations			... done (  0.0 MB)
domo->somo excitations				... done (  0.0 MB)
somo->virtual excitations			... done (  0.0 MB)
somo->somo excitations				... done (  0.0 MB)
Number of open shells			    ...  2
domo->virtual excitations			... done (  0.0 MB)
domo->somo excitations				... done (  0.0 MB)
somo->virtual excitations			... done (  0.0 MB)
somo->somo excitations				... done (  0.0 MB)
Coupling container construction done

 CASSCF (estimated) memory needed     ... 14.0 MB
 NEVPT2 (estimated) memory needed     ... 35.8 MB


SYSTEM-SPECIFIC SETTINGS:
Number of active electrons          ...    8
Number of active orbitals           ...    5
Total number of electrons           ...   84
Total number of orbitals            ...  205
Total number aux. functions         ... 1322

Determined orbital ranges:
   Internal       0 -   37 (  38 orbitals)
   Active        38 -   42 (   5 orbitals)
   External      43 -  204 ( 162 orbitals)
Number of rotation parameters      ...   7156

CI-STEP:
CI strategy                         ... General CI
Number of multiplicity blocks       ...    2
BLOCK  0 WEIGHT=   0.5000
  Multiplicity                      ...    3
  #(Configurations)                 ...   10
  #(CSFs)                           ...   10
  #(Roots)                          ...   10
    ROOT=0 WEIGHT=    0.050000
    ROOT=1 WEIGHT=    0.050000
    ROOT=2 WEIGHT=    0.050000
    ROOT=3 WEIGHT=    0.050000
    ROOT=4 WEIGHT=    0.050000
    ROOT=5 WEIGHT=    0.050000
    ROOT=6 WEIGHT=    0.050000
    ROOT=7 WEIGHT=    0.050000
    ROOT=8 WEIGHT=    0.050000
    ROOT=9 WEIGHT=    0.050000

BLOCK  1 WEIGHT=   0.5000
  Multiplicity                      ...    1
  #(Configurations)                 ...   15
  #(CSFs)                           ...   15
  #(Roots)                          ...   15
    ROOT=0 WEIGHT=    0.033333
    ROOT=1 WEIGHT=    0.033333
    ROOT=2 WEIGHT=    0.033333
    ROOT=3 WEIGHT=    0.033333
    ROOT=4 WEIGHT=    0.033333
    ROOT=5 WEIGHT=    0.033333
    ROOT=6 WEIGHT=    0.033333
    ROOT=7 WEIGHT=    0.033333
    ROOT=8 WEIGHT=    0.033333
    ROOT=9 WEIGHT=    0.033333
    ROOT=10 WEIGHT=    0.033333
    ROOT=11 WEIGHT=    0.033333
    ROOT=12 WEIGHT=    0.033333
    ROOT=13 WEIGHT=    0.033333
    ROOT=14 WEIGHT=    0.033333

  PrintLevel                        ...    1
  N(GuessMat)                       ...      2048
  MaxDim(CI)                        ...        10
  MaxIter(CI)                       ...        64
  Energy Tolerance CI               ...  1.00e-07
  Residual Tolerance CI             ...  1.00e-07
  Shift(CI)                         ...  1.00e-04

INTEGRAL-TRANSFORMATION-STEP:
  Algorithm                         ... RI-MO

ORBITAL-IMPROVEMENT-STEP:
  Algorithm                         ... SuperCI(PT)
  Default Parametrization           ... CAYLEY
  Act-Act rotations                 ... depends on algorithm used

  Note: SuperCI(PT) will ignore FreezeIE, FreezeAct and FreezeGrad. In general Default settings are encouraged.
        In conjunction with ShiftUp, ShiftDn or GradScaling the performance of SuperCI(PT) is less optimal.  

  MaxRot                            ... 2.00e-01 
  Max. no of vectors (DIIS)         ... 15
  DThresh (cut-off) metric          ... 1.00e-06
  Switch step at gradient           ...  3.00e-02 
  Switch step at iteration          ...        50   
  Switch step to                    ... SuperCI(PT)    

SCF-SETTINGS:
  Incremental                       ... on
  RIJCOSX approximation             ... off
  RI-JK approximation               ... off
  AO integral handling              ... DIRECT
  Integral Neglect Thresh           ...  2.50e-11
  Primitive cutoff TCut             ...  2.50e-12
  Energy convergence tolerance      ...  1.00e-06
  Orbital gradient convergence      ...  2.50e-04
  Max. number of iterations         ...     10000  

PT2-SETTINGS:
  A PT2 calculation will be performed on top of the CASSCF wave function (PT2 = SC-NEVPT2)   
 CI step strategy                   ... General CI
  D4C handling                      ... PS approximation (factorized) 
  CI truncation for D4C at          ...  1.00e-12
  CI truncation for D3  at          ...  1.00e-14
  Orbitals                          ... canonical for each state 
  Last  frozen  orbital             ... 17
  First deleted orbital             ... 205
  RI Step                           ... store IJV(array) (MC_ONDISK during integral transformation) 

FINAL ORBITALS:
  Active   Orbitals                 ... d-orbitals 
  Internal Orbitals                 ... canonical 
  External Orbitals                 ... canonical 

------------------
CAS-SCF ITERATIONS
------------------


MACRO-ITERATION   1: 
   --- Inactive Energy E0 = -5416.65813344 Eh
CI-ITERATION   0: 
 -5438.596760164   0.000000000009 (    0.00)
 -5438.589167234   0.000000000003
 -5438.550469169   0.000000000004
 -5438.550469169   0.000000000004
 -5438.446941057   0.000000000006
 -5438.446941057   0.000000000014
 -5438.442210170   0.000000000003
 -5438.420585323   0.000000000004
 -5438.420585323   0.000000000004
 -5438.397293168   0.000000000002
   CI-PROBLEM SOLVED
   DENSITIES MADE
CI-ITERATION   0: 
 -5438.637158656   0.000000000012 (    0.00)
 -5438.566570939   0.000000000003
 -5438.559462113   0.000000000004
 -5438.506601896   0.000000000004
 -5438.506601896   0.000000000005
 -5438.405341956   0.000000000002
 -5438.399173256   0.000000000004
 -5438.398064773   0.000000000008
 -5438.398064773   0.000000000005
 -5438.393674587   0.000000000003
 -5438.375751144   0.000000000003
 -5438.375751144   0.000000000006
 -5438.362387370   0.000000000011
 -5438.362354976   0.000000000005
 -5438.283426317   0.000000000002
   CI-PROBLEM SOLVED
   DENSITIES MADE

                 <<<<<<<<<<<<<<<<<<INITIAL CI STATE CHECK>>>>>>>>>>>>>>>>>>

BLOCK  0 MULT= 3 NROOTS=10 
ROOT   0:  E=   -5438.5967601644 Eh
      1.00000 [     3]: 12221
ROOT   1:  E=   -5438.5891672344 Eh  0.207 eV   1666.5 cm**-1
      1.00000 [     0]: 11222
ROOT   2:  E=   -5438.5504691690 Eh  1.260 eV  10159.7 cm**-1
      0.92260 [     2]: 12212
      0.04612 [     1]: 12122
      0.01391 [     9]: 22211
      0.01192 [     4]: 21122
      0.00293 [     8]: 22121
      0.00252 [     5]: 21212
ROOT   3:  E=   -5438.5504691688 Eh  1.260 eV  10159.7 cm**-1
      0.92260 [     1]: 12122
      0.04612 [     2]: 12212
      0.01391 [     8]: 22121
      0.01192 [     5]: 21212
      0.00293 [     9]: 22211
      0.00252 [     4]: 21122
ROOT   4:  E=   -5438.4469410566 Eh  4.077 eV  32881.5 cm**-1
      0.32307 [     8]: 22121
      0.30491 [     9]: 22211
      0.19092 [     5]: 21212
      0.18019 [     4]: 21122
ROOT   5:  E=   -5438.4469410566 Eh  4.077 eV  32881.5 cm**-1
      0.32307 [     9]: 22211
      0.30491 [     8]: 22121
      0.19092 [     4]: 21122
      0.18019 [     5]: 21212
ROOT   6:  E=   -5438.4422101697 Eh  4.206 eV  33919.8 cm**-1
      0.65199 [     6]: 21221
      0.34801 [     7]: 22112
ROOT   7:  E=   -5438.4205853229 Eh  4.794 eV  38665.9 cm**-1
      0.57334 [     5]: 21212
      0.33142 [     8]: 22121
      0.04111 [     4]: 21122
      0.02601 [     1]: 12122
      0.02376 [     9]: 22211
      0.00437 [     2]: 12212
ROOT   8:  E=   -5438.4205853227 Eh  4.794 eV  38665.9 cm**-1
      0.57334 [     4]: 21122
      0.33142 [     9]: 22211
      0.04111 [     5]: 21212
      0.02601 [     2]: 12212
      0.02376 [     8]: 22121
      0.00437 [     1]: 12122
ROOT   9:  E=   -5438.3972931676 Eh  5.428 eV  43777.9 cm**-1
      0.65199 [     7]: 22112
      0.34801 [     6]: 21221

BLOCK  1 MULT= 1 NROOTS=15 
ROOT   0:  E=   -5438.6371586556 Eh
      0.98921 [     0]: 02222
      0.00294 [    12]: 22202
      0.00294 [     9]: 22022
      0.00263 [    14]: 22220
ROOT   1:  E=   -5438.5665709388 Eh  1.921 eV  15492.2 cm**-1
      0.99160 [     4]: 12221
      0.00308 [    10]: 22112
      0.00266 [     9]: 22022
      0.00266 [    12]: 22202
ROOT   2:  E=   -5438.5594621127 Eh  2.114 eV  17052.4 cm**-1
      0.99095 [     1]: 11222
      0.00573 [    10]: 22112
ROOT   3:  E=   -5438.5066018962 Eh  3.553 eV  28653.9 cm**-1
      0.90706 [     3]: 12212
      0.09167 [     2]: 12122
ROOT   4:  E=   -5438.5066018961 Eh  3.553 eV  28653.9 cm**-1
      0.90706 [     2]: 12122
      0.09167 [     3]: 12212
ROOT   5:  E=   -5438.4053419563 Eh  6.308 eV  50877.9 cm**-1
      0.87520 [    14]: 22220
      0.06141 [     9]: 22022
      0.06141 [    12]: 22202
ROOT   6:  E=   -5438.3991732558 Eh  6.476 eV  52231.8 cm**-1
      1.00000 [     8]: 21221
ROOT   7:  E=   -5438.3980647726 Eh  6.506 eV  52475.0 cm**-1
      0.43675 [    11]: 22121
      0.23296 [     7]: 21212
      0.21458 [    13]: 22211
      0.11446 [     6]: 21122
ROOT   8:  E=   -5438.3980647725 Eh  6.506 eV  52475.0 cm**-1
      0.43675 [    13]: 22211
      0.23296 [     6]: 21122
      0.21458 [    11]: 22121
      0.11446 [     7]: 21212
ROOT   9:  E=   -5438.3936745875 Eh  6.626 eV  53438.6 cm**-1
      0.85571 [     5]: 20222
      0.06728 [    12]: 22202
      0.06728 [     9]: 22022
      0.00961 [    14]: 22220
ROOT  10:  E=   -5438.3757511442 Eh  7.113 eV  57372.3 cm**-1
      0.56719 [     7]: 21212
      0.30278 [    11]: 22121
      0.08475 [     6]: 21122
      0.04524 [    13]: 22211
ROOT  11:  E=   -5438.3757511442 Eh  7.113 eV  57372.3 cm**-1
      0.56719 [     6]: 21122
      0.30278 [    13]: 22211
      0.08475 [     7]: 21212
      0.04524 [    11]: 22121
ROOT  12:  E=   -5438.3623873702 Eh  7.477 eV  60305.3 cm**-1
      0.36372 [    10]: 22112
      0.31394 [    12]: 22202
      0.31394 [     9]: 22022
      0.00840 [     4]: 12221
ROOT  13:  E=   -5438.3623549762 Eh  7.478 eV  60312.4 cm**-1
      0.62747 [    10]: 22112
      0.18174 [    12]: 22202
      0.18174 [     9]: 22022
      0.00905 [     1]: 11222
ROOT  14:  E=   -5438.2834263170 Eh  9.626 eV  77635.3 cm**-1
      0.36837 [     9]: 22022
      0.36837 [    12]: 22202
      0.14041 [     5]: 20222
      0.11256 [    14]: 22220
      0.01029 [     0]: 02222

                 <<<<<<<<<<<<<<<<<<INITIAL CI STATE CHECK>>>>>>>>>>>>>>>>>>

   E(CAS)= -5438.460750618 Eh DE=    0.000000e+00
   --- Energy gap subspaces: Ext-Act = 0.576   Act-Int = -0.831
   N(occ)=  1.60000 1.60000 1.60000 1.60000 1.60000
   ||g|| =     1.072098e+01 Max(G)=    4.612525e+00 Rot=201,0
   --- Orbital Update [SuperCI(PT)]
   --- Canonicalize Internal Space
   --- Canonicalize External Space
   --- SX_PT (Skipped TA=0 IT=0): ||X|| =      1.224337729 Max(X)(43,26) =     -0.627772077 
   --- SFit(Active Orbitals)

MACRO-ITERATION   2: 
   --- Inactive Energy E0 = -5418.45439044 Eh
CI-ITERATION   0: 
 -5438.881422483   0.000000000003 (    0.00)
 -5438.871897653   0.000000000006
 -5438.871897652   0.000000000008
 -5438.866530386   0.000000000003
 -5438.863636197   0.000000000004
 -5438.860251093   0.000000000004
 -5438.860251093   0.000000000006
 -5438.804540218   0.000000000005
 -5438.804540218   0.000000000009
 -5438.793855128   0.000000000003
   CI-PROBLEM SOLVED
   DENSITIES MADE
CI-ITERATION   0: 
 -5438.828703836   0.000000000006 (    0.00)
 -5438.817239413   0.000000000005
 -5438.810138168   0.000000000004
 -5438.802785142   0.000000000008
 -5438.802785142   0.000000000004
 -5438.790177978   0.000000000003
 -5438.788327850   0.000000000005
 -5438.788327850   0.000000000004
 -5438.777604451   0.000000000005
 -5438.774780010   0.000000000003
 -5438.770764992   0.000000000006
 -5438.769705947   0.000000000008
 -5438.769705947   0.000000000007
 -5438.767161136   0.000000000003
 -5438.642201883   0.000000000011
   CI-PROBLEM SOLVED
   DENSITIES MADE
   E(CAS)= -5438.813954764 Eh DE=   -3.532041e-01
   --- Energy gap subspaces: Ext-Act = 0.296   Act-Int = 0.278
   N(occ)=  1.60000 1.60000 1.60000 1.60000 1.60000
   ||g|| =     4.987810e+00 Max(G)=   -8.226576e-01 Rot=125,26
   --- Orbital Update [SuperCI(PT)]
   --- Canonicalize Internal Space
   --- Canonicalize External Space
   --- SX_PT (Skipped TA=0 IT=0): ||X|| =      0.754239584 Max(X)(43,37) =      0.234255582 
   --- SFit(Active Orbitals)

MACRO-ITERATION   3: 
   --- Inactive Energy E0 = -5417.59421464 Eh
CI-ITERATION   0: 
 -5439.631269180   0.000000000005 (    0.00)
 -5439.630702275   0.000000000008
 -5439.617319506   0.000000000004
 -5439.617319506   0.000000000003
 -5439.614253022   0.000000000004
 -5439.614253022   0.000000000005
 -5439.609440067   0.000000000004
 -5439.556105748   0.000000000005
 -5439.556105748   0.000000000006
 -5439.554016177   0.000000000004
   CI-PROBLEM SOLVED
   DENSITIES MADE
CI-ITERATION   0: 
 -5439.579894334   0.000000000008 (    0.00)
 -5439.579760487   0.000000000008
 -5439.564828187   0.000000000004
 -5439.555296475   0.000000000007
 -5439.555296475   0.000000000014
 -5439.540318257   0.000000000008
 -5439.537809495   0.000000000011
 -5439.537809495   0.000000000006
 -5439.537464827   0.000000000005
 -5439.537454942   0.000000000007
 -5439.527719674   0.000000000007
 -5439.527719674   0.000000000014
 -5439.524274265   0.000000000007
 -5439.524268487   0.000000000005
 -5439.404446055   0.000000000005
   CI-PROBLEM SOLVED
   DENSITIES MADE
   E(CAS)= -5439.567851250 Eh DE=   -7.538965e-01
   --- Energy gap subspaces: Ext-Act = 0.558   Act-Int = -0.226
   N(occ)=  1.60000 1.60000 1.60000 1.60000 1.60000
   ||g|| =     6.816605e-01 Max(G)=   -2.555360e-01 Rot=43,38
   --- Orbital Update [SuperCI(PT)]
   --- Canonicalize Internal Space
   --- Canonicalize External Space
   --- SX_PT (Skipped TA=0 IT=0): ||X|| =      0.295507282 Max(X)(43,37) =      0.205503199 
   --- SFit(Active Orbitals)

MACRO-ITERATION   4: 
   --- Inactive Energy E0 = -5417.58501034 Eh
CI-ITERATION   0: 
 -5439.654127097   0.000000000004 (    0.00)
 -5439.651879360   0.000000000007
 -5439.641519846   0.000000000006
 -5439.641519846   0.000000000006
 -5439.639691273   0.000000000003
 -5439.639691273   0.000000000003
 -5439.635044414   0.000000000003
 -5439.579978923   0.000000000003
 -5439.578831236   0.000000000002
 -5439.578831236   0.000000000003
   CI-PROBLEM SOLVED
   DENSITIES MADE
CI-ITERATION   0: 
 -5439.601824712   0.000000000006 (    0.00)
 -5439.600300974   0.000000000004
 -5439.587090234   0.000000000005
 -5439.580880253   0.000000000010
 -5439.580880253   0.000000000011
 -5439.563899311   0.000000000005
 -5439.563846971   0.000000000017
 -5439.561600271   0.000000000009
 -5439.558568809   0.000000000006
 -5439.558568809   0.000000000013
 -5439.553315564   0.000000000005
 -5439.553315564   0.000000000010
 -5439.548851307   0.000000000007
 -5439.548632972   0.000000000005
 -5439.427976504   0.000000000007
   CI-PROBLEM SOLVED
   DENSITIES MADE
   E(CAS)= -5439.591707475 Eh DE=   -2.385623e-02
   --- Energy gap subspaces: Ext-Act = 0.566   Act-Int = -0.211
   N(occ)=  1.60000 1.60000 1.60000 1.60000 1.60000
   ||g|| =     5.413221e-01 Max(G)=   -2.261495e-01 Rot=43,38
   --- Orbital Update [SuperCI(PT)]
   --- Canonicalize Internal Space
   --- Canonicalize External Space
   --- SX_PT (Skipped TA=0 IT=0): ||X|| =      0.252440229 Max(X)(43,36) =     -0.169295050 
   --- SFit(Active Orbitals)

MACRO-ITERATION   5: 
   --- Inactive Energy E0 = -5417.96420086 Eh
CI-ITERATION   0: 
 -5439.719524838   0.000000000003 (    0.00)
 -5439.719468867   0.000000000005
 -5439.719468867   0.000000000004
 -5439.711618472   0.000000000008
 -5439.710832099   0.000000000007
 -5439.709923060   0.000000000003
 -5439.709923060   0.000000000006
 -5439.659401471   0.000000000005
 -5439.642053614   0.000000000002
 -5439.642053614   0.000000000001
   CI-PROBLEM SOLVED
   DENSITIES MADE
CI-ITERATION   0: 
 -5439.666117765   0.000000000004 (    0.00)
 -5439.663116720   0.000000000005
 -5439.660043360   0.000000000003
 -5439.660043360   0.000000000005
 -5439.655896903   0.000000000010
 -5439.647184867   0.000000000010
 -5439.643704805   0.000000000005
 -5439.630978057   0.000000000005
 -5439.630978057   0.000000000004
 -5439.621523195   0.000000000005
 -5439.619253041   0.000000000006
 -5439.615862466   0.000000000004
 -5439.615862466   0.000000000007
 -5439.614671016   0.000000000003
 -5439.497728028   0.000000000003
   CI-PROBLEM SOLVED
   DENSITIES MADE
   E(CAS)= -5439.661978868 Eh DE=   -7.027139e-02
   --- Energy gap subspaces: Ext-Act = 0.560   Act-Int = -0.167
   N(occ)=  1.60000 1.60000 1.60000 1.60000 1.60000
   ||g|| =     2.016022e-01 Max(G)=   -3.236753e-02 Rot=126,25
   --- Orbital Update [SuperCI(PT)]
   --- Canonicalize Internal Space
   --- Canonicalize External Space
   --- SX_PT (Skipped TA=0 IT=0): ||X|| =      0.040200606 Max(X)(42,28) =      0.020512153 
   --- SFit(Active Orbitals)

MACRO-ITERATION   6: 
   --- Inactive Energy E0 = -5417.97248892 Eh
CI-ITERATION   0: 
 -5439.721010708   0.000000000006 (    0.00)
 -5439.720660882   0.000000000004
 -5439.720660882   0.000000000004
 -5439.712722613   0.000000000007
 -5439.711979438   0.000000000007
 -5439.710930193   0.000000000004
 -5439.710930193   0.000000000007
 -5439.661144295   0.000000000005
 -5439.643678733   0.000000000006
 -5439.643678733   0.000000000003
   CI-PROBLEM SOLVED
   DENSITIES MADE
CI-ITERATION   0: 
 -5439.668600869   0.000000000005 (    0.00)
 -5439.664565348   0.000000000008
 -5439.661956322   0.000000000002
 -5439.661956322   0.000000000006
 -5439.656931880   0.000000000004
 -5439.649423692   0.000000000008
 -5439.645587161   0.000000000005
 -5439.632887122   0.000000000006
 -5439.632887122   0.000000000004
 -5439.623427022   0.000000000006
 -5439.621033008   0.000000000007
 -5439.617767727   0.000000000006
 -5439.617767727   0.000000000004
 -5439.616626909   0.000000000002
 -5439.500901526   0.000000000003
   CI-PROBLEM SOLVED
   DENSITIES MADE
   E(CAS)= -5439.663613825 Eh DE=   -1.634957e-03
   --- Energy gap subspaces: Ext-Act = 0.572   Act-Int = -0.185
   N(occ)=  1.60000 1.60000 1.60000 1.60000 1.60000
   ||g|| =     9.748803e-02 Max(G)=    2.834693e-02 Rot=43,21
   --- Orbital Update [SuperCI(PT)]
   --- Canonicalize Internal Space
   --- Canonicalize External Space
   --- SX_PT (Skipped TA=0 IT=0): ||X|| =      0.036555372 Max(X)(42,27) =      0.024332026 
   --- SFit(Active Orbitals)

MACRO-ITERATION   7: 
   --- Inactive Energy E0 = -5418.10028990 Eh
CI-ITERATION   0: 
 -5439.721504507   0.000000000001 (    0.00)
 -5439.721504507   0.000000000004
 -5439.721465726   0.000000000007
 -5439.713679305   0.000000000006
 -5439.712568411   0.000000000004
 -5439.711767117   0.000000000005
 -5439.711767117   0.000000000005
 -5439.662507226   0.000000000003
 -5439.644348628   0.000000000003
 -5439.644348628   0.000000000003
   CI-PROBLEM SOLVED
   DENSITIES MADE
CI-ITERATION   0: 
 -5439.670434418   0.000000000004 (    0.00)
 -5439.664932555   0.000000000006
 -5439.663375421   0.000000000004
 -5439.663375421   0.000000000004
 -5439.657104594   0.000000000004
 -5439.651282083   0.000000000009
 -5439.647053711   0.000000000004
 -5439.634212171   0.000000000008
 -5439.634212171   0.000000000007
 -5439.624483769   0.000000000005
 -5439.621934587   0.000000000006
 -5439.618387049   0.000000000007
 -5439.618387049   0.000000000005
 -5439.617101262   0.000000000004
 -5439.502390787   0.000000000001
   CI-PROBLEM SOLVED
   DENSITIES MADE
   E(CAS)= -5439.664561960 Eh DE=   -9.481349e-04
   --- Energy gap subspaces: Ext-Act = 0.564   Act-Int = -0.177
   N(occ)=  1.60000 1.60000 1.60000 1.60000 1.60000
   ||g|| =     2.927531e-02 Max(G)=    1.245450e-02 Rot=43,21
   --- Orbital Update [SuperCI(PT)]
   --- Canonicalize Internal Space
   --- Canonicalize External Space
   --- SX_PT (Skipped TA=0 IT=0): ||X|| =      0.014425233 Max(X)(42,27) =      0.009889506 
   --- SFit(Active Orbitals)

MACRO-ITERATION   8: 
   --- Inactive Energy E0 = -5418.16390778 Eh
CI-ITERATION   0: 
 -5439.721504625   0.000000000003 (    0.00)
 -5439.721504625   0.000000000005
 -5439.721313620   0.000000000008
 -5439.713793222   0.000000000005
 -5439.712611767   0.000000000004
 -5439.711880300   0.000000000006
 -5439.711880300   0.000000000005
 -5439.662840172   0.000000000004
 -5439.644455360   0.000000000002
 -5439.644455360   0.000000000002
   CI-PROBLEM SOLVED
   DENSITIES MADE
CI-ITERATION   0: 
 -5439.670868624   0.000000000004 (    0.00)
 -5439.664893391   0.000000000015
 -5439.663718582   0.000000000006
 -5439.663718582   0.000000000010
 -5439.657023144   0.000000000005
 -5439.651826295   0.000000000004
 -5439.647420737   0.000000000004
 -5439.634555647   0.000000000007
 -5439.634555647   0.000000000004
 -5439.624735658   0.000000000009
 -5439.622123008   0.000000000004
 -5439.618492374   0.000000000011
 -5439.618492374   0.000000000009
 -5439.617159026   0.000000000004
 -5439.502928217   0.000000000007
   CI-PROBLEM SOLVED
   DENSITIES MADE
   E(CAS)= -5439.664729011 Eh DE=   -1.670509e-04
   --- Energy gap subspaces: Ext-Act = 0.561   Act-Int = -0.174
   N(occ)=  1.60000 1.60000 1.60000 1.60000 1.60000
   ||g|| =     1.646300e-02 Max(G)=    3.110612e-03 Rot=180,13
   --- Orbital Update [SuperCI(PT)]
   --- Canonicalize Internal Space
   --- Canonicalize External Space
   --- SX_PT (Skipped TA=0 IT=0): ||X|| =      0.003765379 Max(X)(42,27) =      0.002772300 
   --- SFit(Active Orbitals)

MACRO-ITERATION   9: 
   --- Inactive Energy E0 = -5418.16860706 Eh
CI-ITERATION   0: 
 -5439.721499432   0.000000000002 (    0.00)
 -5439.721499432   0.000000000006
 -5439.721305765   0.000000000009
 -5439.713803789   0.000000000003
 -5439.712632772   0.000000000004
 -5439.711897399   0.000000000004
 -5439.711897399   0.000000000004
 -5439.662856601   0.000000000003
 -5439.644465120   0.000000000010
 -5439.644465120   0.000000000002
   CI-PROBLEM SOLVED
   DENSITIES MADE
CI-ITERATION   0: 
 -5439.670876676   0.000000000005 (    0.00)
 -5439.664924430   0.000000000011
 -5439.663731066   0.000000000008
 -5439.663731066   0.000000000010
 -5439.657037690   0.000000000010
 -5439.651852435   0.000000000004
 -5439.647414989   0.000000000005
 -5439.634562418   0.000000000012
 -5439.634562418   0.000000000008
 -5439.624742196   0.000000000007
 -5439.622118243   0.000000000007
 -5439.618488644   0.000000000010
 -5439.618488644   0.000000000009
 -5439.617154497   0.000000000006
 -5439.502919251   0.000000000002
   CI-PROBLEM SOLVED
   DENSITIES MADE
   E(CAS)= -5439.664736297 Eh DE=   -7.285752e-06
   --- Energy gap subspaces: Ext-Act = 0.560   Act-Int = -0.174
   N(occ)=  1.60000 1.60000 1.60000 1.60000 1.60000
   ||g|| =     7.324683e-03 Max(G)=    2.553658e-03 Rot=43,21
   --- Orbital Update [SuperCI(PT)]
   --- Canonicalize Internal Space
   --- Canonicalize External Space
   --- SX_PT (Skipped TA=0 IT=0): ||X|| =      0.002745874 Max(X)(42,27) =      0.001890048 
   --- SFit(Active Orbitals)

MACRO-ITERATION  10: 
   --- Inactive Energy E0 = -5418.18384019 Eh
CI-ITERATION   0: 
 -5439.721447484   0.000000000002 (    0.00)
 -5439.721447484   0.000000000006
 -5439.721226403   0.000000000007
 -5439.713792028   0.000000000005
 -5439.712626336   0.000000000004
 -5439.711896058   0.000000000003
 -5439.711896058   0.000000000004
 -5439.662901547   0.000000000004
 -5439.644468605   0.000000000004
 -5439.644468605   0.000000000004
   CI-PROBLEM SOLVED
   DENSITIES MADE
CI-ITERATION   0: 
 -5439.670920240   0.000000000003 (    0.00)
 -5439.664916568   0.000000000006
 -5439.663773283   0.000000000004
 -5439.663773283   0.000000000008
 -5439.657012516   0.000000000009
 -5439.651947412   0.000000000007
 -5439.647451824   0.000000000005
 -5439.634608496   0.000000000008
 -5439.634608496   0.000000000004
 -5439.624772458   0.000000000006
 -5439.622128028   0.000000000006
 -5439.618484767   0.000000000006
 -5439.618484767   0.000000000009
 -5439.617142119   0.000000000005
 -5439.503013166   0.000000000007
   CI-PROBLEM SOLVED
   DENSITIES MADE
   E(CAS)= -5439.664743111 Eh DE=   -6.814385e-06
   --- Energy gap subspaces: Ext-Act = 0.560   Act-Int = -0.173
   N(occ)=  1.60000 1.60000 1.60000 1.60000 1.60000
   ||g|| =     2.311629e-03 Max(G)=    4.804696e-04 Rot=178,15
   --- Orbital Update [SuperCI(PT)]
   --- Canonicalize Internal Space
   --- Canonicalize External Space
   --- SX_PT (Skipped TA=0 IT=0): ||X|| =      0.000290294 Max(X)(38,27) =      0.000209664 
Warning: badly conditioned DIIS matrix, 1 vectors out of 10 destroyed
Warning: badly conditioned DIIS matrix, 1 vectors out of 9 destroyed
   --- SFit(Active Orbitals)

MACRO-ITERATION  11: 
   --- Inactive Energy E0 = -5418.18293751 Eh
CI-ITERATION   0: 
 -5439.721450322   0.000000000003 (    0.00)
 -5439.721450322   0.000000000009
 -5439.721229485   0.000000000002
 -5439.713795554   0.000000000006
 -5439.712632310   0.000000000009
 -5439.711901465   0.000000000004
 -5439.711901465   0.000000000005
 -5439.662900097   0.000000000003
 -5439.644468782   0.000000000003
 -5439.644468782   0.000000000003
   CI-PROBLEM SOLVED
   DENSITIES MADE
CI-ITERATION   0: 
 -5439.670913285   0.000000000005 (    0.00)
 -5439.664916053   0.000000000016
 -5439.663771247   0.000000000003
 -5439.663771247   0.000000000012
 -5439.657014996   0.000000000006
 -5439.651940902   0.000000000007
 -5439.647450251   0.000000000004
 -5439.634606956   0.000000000005
 -5439.634606956   0.000000000005
 -5439.624772019   0.000000000005
 -5439.622128065   0.000000000017
 -5439.618482701   0.000000000006
 -5439.618482701   0.000000000006
 -5439.617139428   0.000000000003
 -5439.503000573   0.000000000003
   CI-PROBLEM SOLVED
   DENSITIES MADE
   E(CAS)= -5439.664743175 Eh DE=   -6.393293e-08
   --- Energy gap subspaces: Ext-Act = 0.560   Act-Int = -0.173
   N(occ)=  1.60000 1.60000 1.60000 1.60000 1.60000
   ||g|| =     4.870979e-04 Max(G)=   -7.478789e-05 Rot=59,34
                     ---- THE CAS-SCF ENERGY   HAS CONVERGED ----
                            --- FINALIZING ORBITALS ---
                    ---- DOING ONE FINAL ITERATION FOR PRINTING ----
   --- d-orbitals (depends on the molecular axis frame)
 L-Center:  4 Pd [0.000, 0.000, 0.000] 
   --- The active space contains 5 d Orbitals : OK
 Setting 38 active MO to AO dz2     (183)
 Setting 39 active MO to AO dxz     (184)
 Setting 40 active MO to AO dyz     (185)
 Setting 41 active MO to AO dx2y2   (186)
 Setting 42 active MO to AO dxy     (187)
   --- Canonicalize Internal Space
   --- Canonicalize External Space

MACRO-ITERATION  12: 
   --- Inactive Energy E0 = -5418.18293750 Eh
   --- All densities will be recomputed
CI-ITERATION   0: 
 -5439.721450314   0.000000000005 (    0.00)
 -5439.721450314   0.000000000004
 -5439.721229477   0.000000000002
 -5439.713795546   0.000000000004
 -5439.712632303   0.000000000003
 -5439.711901457   0.000000000004
 -5439.711901457   0.000000000004
 -5439.662900089   0.000000000005
 -5439.644468775   0.000000000004
 -5439.644468775   0.000000000002
   CI-PROBLEM SOLVED
   DENSITIES MADE
CI-ITERATION   0: 
 -5439.670913277   0.000000000003 (    0.00)
 -5439.664916045   0.000000000004
 -5439.663771239   0.000000000006
 -5439.663771239   0.000000000008
 -5439.657014989   0.000000000005
 -5439.651940894   0.000000000004
 -5439.647450244   0.000000000004
 -5439.634606949   0.000000000005
 -5439.634606949   0.000000000006
 -5439.624772012   0.000000000011
 -5439.622128057   0.000000000010
 -5439.618482694   0.000000000006
 -5439.618482694   0.000000000005
 -5439.617139420   0.000000000005
 -5439.503000566   0.000000000002
   CI-PROBLEM SOLVED
   DENSITIES MADE
   E(CAS)= -5439.664743167 Eh DE=    7.493327e-09
   --- Energy gap subspaces: Ext-Act = 0.538   Act-Int = -0.182
   N(occ)=  1.60000 1.60000 1.60000 1.60000 1.60000
   ||g|| =     4.870991e-04 Max(G)=    7.235488e-05 Rot=59,34
--------------
CASSCF RESULTS
--------------

Final CASSCF energy       : -5439.664743167 Eh -148020.8029 eV

----------------
ORBITAL ENERGIES
----------------

  NO   OCC          E(Eh)            E(eV) 
   0   2.0000    -899.223256    -24469.1088 
   1   2.0000    -134.563069     -3661.6473 
   2   2.0000    -120.499210     -3278.9502 
   3   2.0000    -120.498060     -3278.9189 
   4   2.0000    -120.498060     -3278.9189 
   5   2.0000     -25.850605      -703.4307 
   6   2.0000     -25.850605      -703.4307 
   7   2.0000     -25.850605      -703.4307 
   8   2.0000     -25.850605      -703.4307 
   9   2.0000     -25.739841      -700.4167 
  10   2.0000     -20.981204      -570.9276 
  11   2.0000     -20.977407      -570.8243 
  12   2.0000     -20.977407      -570.8243 
  13   2.0000     -13.402936      -364.7124 
  14   2.0000     -13.402102      -364.6897 
  15   2.0000     -13.402102      -364.6897 
  16   2.0000     -13.400057      -364.6341 
  17   2.0000     -13.399513      -364.6193 
  18   2.0000      -4.023652      -109.4892 
  19   2.0000      -2.567960       -69.8778 
  20   2.0000      -2.560872       -69.6849 
  21   2.0000      -2.560872       -69.6849 
  22   2.0000      -1.074877       -29.2489 
  23   2.0000      -1.074677       -29.2435 
  24   2.0000      -1.074677       -29.2435 
  25   2.0000      -1.074598       -29.2413 
  26   2.0000      -0.188467        -5.1284 
  27   2.0000      -0.188213        -5.1215 
  28   2.0000      -0.184977        -5.0335 
  29   2.0000      -0.182983        -4.9792 
  30   2.0000      -0.182983        -4.9792 
  31   2.0000      -0.182926        -4.9777 
  32   2.0000      -0.181974        -4.9518 
  33   2.0000      -0.181974        -4.9518 
  34   2.0000      -0.180896        -4.9224 
  35   2.0000      -0.178961        -4.8698 
  36   2.0000      -0.169576        -4.6144 
  37   2.0000      -0.169576        -4.6144 
  38   1.6000      -0.351447        -9.5633 
  39   1.6000      -0.351725        -9.5709 
  40   1.6000      -0.351725        -9.5709 
  41   1.6000      -0.320827        -8.7301 
  42   1.6000      -0.341186        -9.2841 
  43   0.0000       0.217331         5.9139 
  44   0.0000       0.287510         7.8235 
  45   0.0000       0.383806        10.4439 
  46   0.0000       0.383806        10.4439 
  47   0.0000       0.453713        12.3462 
  48   0.0000       0.514412        13.9979 
  49   0.0000       0.573671        15.6104 
  50   0.0000       0.573671        15.6104 
  51   0.0000       0.729121        19.8404 
  52   0.0000       0.729121        19.8404 
  53   0.0000       0.755775        20.5657 
  54   0.0000       0.758631        20.6434 
  55   0.0000       0.841573        22.9004 
  56   0.0000       1.067012        29.0349 
  57   0.0000       1.067012        29.0349 
  58   0.0000       1.067667        29.0527 
  59   0.0000       1.079231        29.3674 
  60   0.0000       1.084409        29.5083 
  61   0.0000       1.110938        30.2302 
  62   0.0000       1.121443        30.5160 
  63   0.0000       1.121507        30.5177 
  64   0.0000       1.121507        30.5177 
  65   0.0000       1.140799        31.0427 
  66   0.0000       1.140799        31.0427 
  67   0.0000       1.149244        31.2725 
  68   0.0000       1.156929        31.4816 
  69   0.0000       1.281913        34.8826 
  70   0.0000       1.281913        34.8826 
  71   0.0000       1.395993        37.9869 
  72   0.0000       1.399816        38.0909 
  73   0.0000       1.459120        39.7047 
  74   0.0000       1.504110        40.9289 
  75   0.0000       1.504110        40.9289 
  76   0.0000       2.463107        67.0246 
  77   0.0000       2.463107        67.0246 
  78   0.0000       2.478820        67.4521 
  79   0.0000       2.511776        68.3489 
  80   0.0000       2.535599        68.9972 
  81   0.0000       2.691737        73.2459 
  82   0.0000       2.693462        73.2928 
  83   0.0000       2.697351        73.3987 
  84   0.0000       2.697351        73.3987 
  85   0.0000       2.699231        73.4498 
  86   0.0000       2.699231        73.4498 
  87   0.0000       2.699358        73.4533 
  88   0.0000       2.699394        73.4542 
  89   0.0000       2.699443        73.4556 
  90   0.0000       2.699446        73.4557 
  91   0.0000       2.699489        73.4568 
  92   0.0000       2.699489        73.4568 
  93   0.0000       2.700248        73.4775 
  94   0.0000       2.717219        73.9393 
  95   0.0000       2.718945        73.9863 
  96   0.0000       2.718945        73.9863 
  97   0.0000       2.721368        74.0522 
  98   0.0000       2.721952        74.0681 
  99   0.0000       2.724496        74.1373 
 100   0.0000       2.724496        74.1373 
 101   0.0000       2.728698        74.2517 
 102   0.0000       2.728698        74.2517 
 103   0.0000       2.761141        75.1345 
 104   0.0000       2.761141        75.1345 
 105   0.0000       2.765964        75.2657 
 106   0.0000       2.802468        76.2590 
 107   0.0000       3.021257        82.2126 
 108   0.0000       3.549018        96.5737 
 109   0.0000       4.045657       110.0879 
 110   0.0000       4.063308       110.5682 
 111   0.0000       4.063308       110.5682 
 112   0.0000       4.063890       110.5841 
 113   0.0000       4.063890       110.5841 
 114   0.0000       4.065536       110.6289 
 115   0.0000       4.066369       110.6515 
 116   0.0000       4.075100       110.8891 
 117   0.0000       4.091404       111.3328 
 118   0.0000       4.095285       111.4384 
 119   0.0000       4.098285       111.5200 
 120   0.0000       4.098285       111.5200 
 121   0.0000       4.313273       117.3701 
 122   0.0000       4.341953       118.1506 
 123   0.0000       4.341953       118.1506 
 124   0.0000       4.423572       120.3715 
 125   0.0000       4.847356       131.9033 
 126   0.0000       4.934025       134.2617 
 127   0.0000       4.934025       134.2617 
 128   0.0000       7.843598       213.4352 
 129   0.0000       7.844010       213.4464 
 130   0.0000       7.844010       213.4464 
 131   0.0000       7.844449       213.4583 
 132   0.0000       7.844449       213.4583 
 133   0.0000       7.844469       213.4589 
 134   0.0000       7.844589       213.4621 
 135   0.0000       7.846055       213.5020 
 136   0.0000       7.846092       213.5030 
 137   0.0000       7.846092       213.5030 
 138   0.0000       7.846454       213.5129 
 139   0.0000       7.846905       213.5251 
 140   0.0000       7.847726       213.5475 
 141   0.0000       7.847727       213.5475 
 142   0.0000       7.847775       213.5488 
 143   0.0000       7.847775       213.5488 
 144   0.0000       7.847866       213.5513 
 145   0.0000       7.847896       213.5521 
 146   0.0000       7.847896       213.5521 
 147   0.0000       7.849265       213.5894 
 148   0.0000       7.853439       213.7029 
 149   0.0000       7.853440       213.7030 
 150   0.0000       7.853440       213.7030 
 151   0.0000       7.853440       213.7030 
 152   0.0000       7.853440       213.7030 
 153   0.0000       7.853442       213.7030 
 154   0.0000       7.853442       213.7030 
 155   0.0000       7.853444       213.7031 
 156   0.0000       9.310877       253.3618 
 157   0.0000       9.311616       253.3819 
 158   0.0000       9.312162       253.3968 
 159   0.0000       9.312162       253.3968 
 160   0.0000       9.314109       253.4498 
 161   0.0000       9.314109       253.4498 
 162   0.0000       9.314459       253.4593 
 163   0.0000       9.315420       253.4855 
 164   0.0000       9.316323       253.5100 
 165   0.0000       9.316367       253.5112 
 166   0.0000       9.316367       253.5112 
 167   0.0000       9.316376       253.5115 
 168   0.0000       9.316376       253.5115 
 169   0.0000       9.316379       253.5115 
 170   0.0000       9.316379       253.5115 
 171   0.0000       9.316401       253.5121 
 172   0.0000       9.339493       254.1405 
 173   0.0000       9.350043       254.4276 
 174   0.0000       9.350043       254.4276 
 175   0.0000       9.350368       254.4365 
 176   0.0000       9.629783       262.0397 
 177   0.0000       9.629783       262.0397 
 178   0.0000       9.658424       262.8191 
 179   0.0000       9.681453       263.4457 
 180   0.0000       9.840929       267.7853 
 181   0.0000      12.022941       327.1608 
 182   0.0000      19.713691       536.4368 
 183   0.0000      19.754813       537.5558 
 184   0.0000      19.754813       537.5558 
 185   0.0000      19.793068       538.5968 
 186   0.0000      20.588349       560.2374 
 187   0.0000      20.645131       561.7826 
 188   0.0000      20.645131       561.7826 
 189   0.0000      45.402939      1235.4768 
 190   0.0000      92.214012      2509.2708 
 191   0.0000      92.251970      2510.3037 
 192   0.0000      92.251970      2510.3037 
 193   0.0000     102.859289      2798.9435 
 194   0.0000     102.902118      2800.1090 
 195   0.0000     102.902118      2800.1090 
 196   0.0000     102.937905      2801.0828 
 197   0.0000     167.516752      4558.3626 
 198   0.0000     405.611515     11037.2504 
 199   0.0000     405.638345     11037.9805 
 200   0.0000     405.638345     11037.9805 
 201   0.0000     552.379083     15030.9990 
 202   0.0000    1605.625694     43691.2964 
 203   0.0000    4138.598835    112616.9996 
 204   0.0000   12162.621132    330961.7468 


---------------------------------------------
CAS-SCF STATES FOR BLOCK  0 MULT= 3 NROOTS=10
---------------------------------------------

ROOT   0:  E=   -5439.7214503144 Eh
      0.50789 [     5]: 21212
      0.31569 [     7]: 22112
      0.08386 [     8]: 22121
      0.05213 [     6]: 21221
      0.02493 [     0]: 11222
      0.01550 [     1]: 12122
ROOT   1:  E=   -5439.7214503144 Eh  0.000 eV      0.0 cm**-1
      0.50789 [     7]: 22112
      0.31569 [     5]: 21212
      0.08386 [     6]: 21221
      0.05213 [     8]: 22121
      0.02493 [     1]: 12122
      0.01550 [     0]: 11222
ROOT   2:  E=   -5439.7212294775 Eh  0.006 eV     48.5 cm**-1
      1.00000 [     2]: 12212
ROOT   3:  E=   -5439.7137955460 Eh  0.208 eV   1680.0 cm**-1
      0.56606 [     4]: 21122
      0.43394 [     9]: 22211
ROOT   4:  E=   -5439.7126323026 Eh  0.240 eV   1935.3 cm**-1
      1.00000 [     3]: 12221
ROOT   5:  E=   -5439.7119014572 Eh  0.260 eV   2095.7 cm**-1
      0.35801 [     8]: 22121
      0.34676 [     6]: 21221
      0.12256 [     0]: 11222
      0.11871 [     1]: 12122
      0.02741 [     5]: 21212
      0.02655 [     7]: 22112
ROOT   6:  E=   -5439.7119014572 Eh  0.260 eV   2095.7 cm**-1
      0.35801 [     6]: 21221
      0.34676 [     8]: 22121
      0.12256 [     1]: 12122
      0.11871 [     0]: 11222
      0.02741 [     7]: 22112
      0.02655 [     5]: 21212
ROOT   7:  E=   -5439.6629000890 Eh  1.593 eV  12850.3 cm**-1
      0.56606 [     9]: 22211
      0.43394 [     4]: 21122
ROOT   8:  E=   -5439.6444687750 Eh  2.095 eV  16895.5 cm**-1
      0.37903 [     1]: 12122
      0.33927 [     0]: 11222
      0.08403 [     6]: 21221
      0.07522 [     8]: 22121
      0.06462 [     7]: 22112
      0.05784 [     5]: 21212
ROOT   9:  E=   -5439.6444687749 Eh  2.095 eV  16895.5 cm**-1
      0.37903 [     0]: 11222
      0.33927 [     1]: 12122
      0.08403 [     8]: 22121
      0.07522 [     6]: 21221
      0.06462 [     5]: 21212
      0.05784 [     7]: 22112


---------------------------------------------
CAS-SCF STATES FOR BLOCK  1 MULT= 1 NROOTS=15
---------------------------------------------

ROOT   0:  E=   -5439.6709132771 Eh
      0.71349 [    12]: 22202
      0.10341 [     0]: 02222
      0.06239 [     5]: 20222
      0.06239 [     9]: 22022
      0.05832 [    14]: 22220
ROOT   1:  E=   -5439.6649160453 Eh  0.163 eV   1316.2 cm**-1
      0.82013 [     3]: 12212
      0.08993 [     9]: 22022
      0.08993 [     5]: 20222
ROOT   2:  E=   -5439.6637712393 Eh  0.194 eV   1567.5 cm**-1
      0.61412 [     7]: 21212
      0.27528 [    11]: 22121
      0.04892 [    10]: 22112
      0.03681 [     1]: 11222
      0.02193 [     8]: 21221
      0.00293 [     2]: 12122
ROOT   3:  E=   -5439.6637712392 Eh  0.194 eV   1567.5 cm**-1
      0.61412 [    10]: 22112
      0.27528 [     8]: 21221
      0.04892 [     7]: 21212
      0.03681 [     2]: 12122
      0.02193 [    11]: 22121
      0.00293 [     1]: 11222
ROOT   4:  E=   -5439.6570149889 Eh  0.378 eV   3050.3 cm**-1
      0.71708 [     4]: 12221
      0.28292 [     6]: 21122
ROOT   5:  E=   -5439.6519408944 Eh  0.516 eV   4164.0 cm**-1
      1.00000 [    13]: 22211
ROOT   6:  E=   -5439.6474502435 Eh  0.638 eV   5149.5 cm**-1
      0.76213 [    14]: 22220
      0.16319 [    12]: 22202
      0.03723 [     0]: 02222
      0.01872 [     5]: 20222
      0.01872 [     9]: 22022
ROOT   7:  E=   -5439.6346069487 Eh  0.988 eV   7968.3 cm**-1
      0.49566 [     8]: 21221
      0.24505 [    10]: 22112
      0.16518 [    11]: 22121
      0.08166 [     7]: 21212
      0.00934 [     2]: 12122
      0.00311 [     1]: 11222
ROOT   8:  E=   -5439.6346069487 Eh  0.988 eV   7968.3 cm**-1
      0.49566 [    11]: 22121
      0.24505 [     7]: 21212
      0.16518 [     8]: 21221
      0.08166 [    10]: 22112
      0.00934 [     1]: 11222
      0.00311 [     2]: 12122
ROOT   9:  E=   -5439.6247720119 Eh  1.256 eV  10126.8 cm**-1
      0.41007 [     5]: 20222
      0.41007 [     9]: 22022
      0.17987 [     3]: 12212
ROOT  10:  E=   -5439.6221280572 Eh  1.328 eV  10707.1 cm**-1
      0.71708 [     6]: 21122
      0.28292 [     4]: 12221
ROOT  11:  E=   -5439.6184826939 Eh  1.427 eV  11507.2 cm**-1
      0.64807 [     1]: 11222
      0.29974 [     2]: 12122
      0.02868 [    11]: 22121
      0.01326 [     8]: 21221
      0.00701 [     7]: 21212
      0.00324 [    10]: 22112
ROOT  12:  E=   -5439.6184826939 Eh  1.427 eV  11507.2 cm**-1
      0.64807 [     2]: 12122
      0.29974 [     1]: 11222
      0.02868 [     8]: 21221
      0.01326 [    11]: 22121
      0.00701 [    10]: 22112
      0.00324 [     7]: 21212
ROOT  13:  E=   -5439.6171394204 Eh  1.463 eV  11802.0 cm**-1
      0.62051 [     0]: 02222
      0.18801 [     9]: 22022
      0.18801 [     5]: 20222
      0.00265 [    14]: 22220
ROOT  14:  E=   -5439.5030005657 Eh  4.569 eV  36852.6 cm**-1
      0.23886 [     0]: 02222
      0.23088 [     9]: 22022
      0.23088 [     5]: 20222
      0.17690 [    14]: 22220
      0.12249 [    12]: 22202


-----------------------------
SA-CASSCF TRANSITION ENERGIES
------------------------------

LOWEST ROOT (ROOT 0 ,MULT 3) =  -5439.721450314 Eh -148022.346 eV

STATE   ROOT MULT  DE/a.u.    DE/eV    DE/cm**-1
   1:    1    3   0.000000     0.000      0.0
   2:    2    3   0.000221     0.006     48.5
   3:    3    3   0.007655     0.208   1680.0
   4:    4    3   0.008818     0.240   1935.3
   5:    5    3   0.009549     0.260   2095.7
   6:    6    3   0.009549     0.260   2095.7
   7:    0    1   0.050537     1.375  11091.6
   8:    1    1   0.056534     1.538  12407.8
   9:    2    1   0.057679     1.570  12659.1
  10:    3    1   0.057679     1.570  12659.1
  11:    7    3   0.058550     1.593  12850.3
  12:    4    1   0.064435     1.753  14141.9
  13:    5    1   0.069509     1.891  15255.6
  14:    6    1   0.074000     2.014  16241.1
  15:    8    3   0.076982     2.095  16895.5
  16:    9    3   0.076982     2.095  16895.5
  17:    7    1   0.086843     2.363  19059.9
  18:    8    1   0.086843     2.363  19059.9
  19:    9    1   0.096678     2.631  21218.4
  20:   10    1   0.099322     2.703  21798.7
  21:   11    1   0.102968     2.802  22598.8
  22:   12    1   0.102968     2.802  22598.8
  23:   13    1   0.104311     2.838  22893.6
  24:   14    1   0.218450     5.944  47944.2


--------------
DENSITY MATRIX
--------------

                  0          1          2          3          4    
      0       1.600000  -0.000000  -0.000000  -0.000000  -0.000000
      1      -0.000000   1.600000   0.000000  -0.000000   0.000000
      2      -0.000000   0.000000   1.600000  -0.000000  -0.000000
      3      -0.000000  -0.000000  -0.000000   1.600000  -0.000000
      4      -0.000000   0.000000  -0.000000  -0.000000   1.600000
Trace of the electron density:  8.000000
Extracting Spin-Density from 2-RDM (MULT=3) ... done
Extracting Spin-Density from 2-RDM (MULT=1) ... done

-------------------
SPIN-DENSITY MATRIX
-------------------

                  0          1          2          3          4    
      0       0.200000  -0.000000   0.000000  -0.000000   0.000000
      1      -0.000000   0.200000  -0.000000   0.000000  -0.000000
      2       0.000000  -0.000000   0.200000   0.000000  -0.000000
      3      -0.000000   0.000000   0.000000   0.200000   0.000000
      4       0.000000  -0.000000  -0.000000   0.000000   0.200000
Trace of the spin density:  1.000000

-----------------
ENERGY COMPONENTS
-----------------

One electron energy          :  -8224.096850114 Eh     -223789.0525 eV
Two electron energy          :   2437.626545757 Eh       66331.1905 eV
Nuclear repulsion energy     :    346.805561189 Eh        9437.0591 eV
                               ----------------
                                -5439.664743167

Kinetic energy               :   6081.455466785 Eh      165484.8163 eV
Potential energy             : -11521.120209952 Eh     -313505.6192 eV
Virial ratio                 :     -1.894467578 
                               ----------------
                                -5439.664743167

Core energy                  :  -5418.182937503 Eh  -147436.2532 eV


----------------------------
LOEWDIN ORBITAL-COMPOSITIONS
----------------------------

                      0         1         2         3         4         5   
                 -899.22326 -134.56307 -120.49921 -120.49806 -120.49806 -25.85061
                   2.00000   2.00000   2.00000   2.00000   2.00000   2.00000
                  --------  --------  --------  --------  --------  --------
 0 F  s               0.0       0.0       0.0       0.0       0.0      24.9
 1 F  s               0.0       0.0       0.0       0.0       0.0      25.1
 2 F  s               0.0       0.0       0.0       0.0       0.0      24.9
 3 F  s               0.0       0.0       0.0       0.0       0.0      25.1
 4 Pd s             100.0     100.0       0.0       0.0       0.0       0.0
 4 Pd pz              0.0       0.0     100.0       0.0       0.0       0.0
 4 Pd px              0.0       0.0       0.0       0.1      99.9       0.0
 4 Pd py              0.0       0.0       0.0      99.9       0.1       0.0

                      6         7         8         9        10        11   
                 -25.85061 -25.85061 -25.85060 -25.73984 -20.98120 -20.97741
                   2.00000   2.00000   2.00000   2.00000   2.00000   2.00000
                  --------  --------  --------  --------  --------  --------
 0 F  s               1.6      48.5      25.0       0.0       0.0       0.0
 1 F  s               1.6      48.3      25.0       0.0       0.0       0.0
 2 F  s              48.5       1.6      25.0       0.0       0.0       0.0
 3 F  s              48.3       1.6      25.0       0.0       0.0       0.0
 4 Pd s               0.0       0.0       0.0     100.0       0.0       0.0
 4 Pd pz              0.0       0.0       0.0       0.0     100.0       0.0
 4 Pd px              0.0       0.0       0.0       0.0       0.0      80.5
 4 Pd py              0.0       0.0       0.0       0.0       0.0      19.5

                     12        13        14        15        16        17   
                 -20.97741 -13.40294 -13.40210 -13.40210 -13.40006 -13.39951
                   2.00000   2.00000   2.00000   2.00000   2.00000   2.00000
                  --------  --------  --------  --------  --------  --------
 4 Pd px             19.5       0.0       0.0       0.0       0.0       0.0
 4 Pd py             80.5       0.0       0.0       0.0       0.0       0.0
 4 Pd dz2             0.0     100.0       0.0       0.0       0.0       0.0
 4 Pd dxz             0.0       0.0       4.3      95.7       0.0       0.0
 4 Pd dyz             0.0       0.0      95.7       4.3       0.0       0.0
 4 Pd dx2y2           0.0       0.0       0.0       0.0     100.0       0.0
 4 Pd dxy             0.0       0.0       0.0       0.0       0.0     100.0

                     18        19        20        21        22        23   
                  -4.02365  -2.56796  -2.56087  -2.56087  -1.07488  -1.07468
                   2.00000   2.00000   2.00000   2.00000   2.00000   2.00000
                  --------  --------  --------  --------  --------  --------
 0 F  s               0.0       0.0       0.0       0.0      24.7       8.0
 1 F  s               0.0       0.0       0.0       0.0      24.7       8.0
 2 F  s               0.0       0.0       0.0       0.0      24.7      41.0
 3 F  s               0.0       0.0       0.0       0.0      24.7      41.0
 4 Pd s             100.0       0.0       0.0       0.0       0.9       0.0
 4 Pd pz              0.0     100.0       0.0       0.0       0.0       0.0
 4 Pd px              0.0       0.0      23.4      76.6       0.0       0.3
 4 Pd py              0.0       0.0      76.6      23.4       0.0       1.6
 4 Pd dz2             0.0       0.0       0.0       0.0       0.2       0.0

                     24        25        26        27        28        29   
                  -1.07468  -1.07460  -0.18847  -0.18821  -0.18498  -0.18298
                   2.00000   2.00000   2.00000   2.00000   2.00000   2.00000
                  --------  --------  --------  --------  --------  --------
 0 F  s              41.0      24.9       0.0       0.0       0.0       0.0
 0 F  pz              0.0       0.0       0.0       0.0       0.0       7.4
 0 F  px              0.0       0.0      23.0      22.3       0.0       0.0
[...]

------------------------------
AILFT MATRIX ELEMENTS (NEVPT2)
--------------------------------

Ligand field one-electron matrix VLFT (a.u.) : 
Orbital          dz2        dxz        dyz        dx2-y2     dxy
  dz2         -4.918485  -0.000000  -0.000000   0.000000   0.000000 
  dxz         -0.000000  -4.916253  -0.000000  -0.000000  -0.000000 
  dyz         -0.000000  -0.000000  -4.916253   0.000000   0.000000 
  dx2-y2       0.000000  -0.000000   0.000000  -4.890288   0.000000 
  dxy          0.000000  -0.000000   0.000000   0.000000  -4.905566 

-------------------------------------------------
Slater-Condon Parameters (electronic repulsion) : 
-------------------------------------------------
F2dd                    =  0.294611639 a.u. =     8.017 eV =   64659.8 cm**-1
F4dd                    =  0.181445445 a.u. =     4.937 eV =   39822.7 cm**-1
-------------------
Racah Parameters : 
-------------------
B                       =  0.003955278 a.u. =     0.108 eV =     868.1 cm**-1
C                       =  0.014400432 a.u. =     0.392 eV =    3160.5 cm**-1
C/B                     =  3.641
-------------------------------------------------------------------------------

-----------------------------------------
The ligand field one electron eigenfunctions:
-----------------------------------------
Orbital    Energy (eV)  Energy(cm-1)      dz2        dxz        dyz        dx2-y2     dxy
    1          0.000        0.0         1.000000   0.000000   0.000000  -0.000000  -0.000000 
    2          0.061      489.8         0.000000  -0.589552  -0.807730   0.000000   0.000000 
    3          0.061      489.8         0.000000   0.807730  -0.589552   0.000000   0.000000 
    4          0.352     2835.4         0.000000  -0.000000   0.000000  -0.000000   1.000000 
    5          0.767     6188.4        -0.000000   0.000000  -0.000000  -1.000000  -0.000000 
Ligand field orbitals were stored in run_D4h_Pd.nevpt2.lft.gbw

Calculating ligand field Hamiltonian matrices          ... done
Diagonalizing and fitting the ligand field Hamiltonian ... done
Calculating statistical parameters                     ... done

Reference energy AI-LFT =    -21.536649079 au
Reference energy AI     =    -21.538512811 au

------------------------------------------------
COMPARISON OF AB INITIO AND LIGAND FIELD RESULTS
------------------------------------------------

Block   1
---------
   AI-Root   0: E(AI)=   -0.000 eV -> LF-Root   0:     0.000 eV    S= 1.000 Delta=   -0.000 eV
   AI-Root   1: E(AI)=    0.090 eV -> LF-Root   1:     0.033 eV    S= 0.993 Delta=    0.057 eV
   AI-Root   2: E(AI)=    0.090 eV -> LF-Root   2:     0.033 eV    S= 0.993 Delta=    0.057 eV
   AI-Root   3: E(AI)=    0.405 eV -> LF-Root   3:     0.308 eV    S= 0.997 Delta=    0.097 eV
   AI-Root   4: E(AI)=    0.536 eV -> LF-Root   4:     0.416 eV    S= 1.000 Delta=    0.120 eV
   AI-Root   5: E(AI)=    0.571 eV -> LF-Root   5:     0.437 eV    S= 0.995 Delta=    0.134 eV
   AI-Root   6: E(AI)=    0.571 eV -> LF-Root   6:     0.437 eV    S= 0.995 Delta=    0.134 eV
   AI-Root   7: E(AI)=    1.510 eV -> LF-Root   7:     1.600 eV    S= 0.997 Delta=   -0.091 eV
   AI-Root   8: E(AI)=    2.111 eV -> LF-Root   8:     2.145 eV    S= 0.999 Delta=   -0.034 eV
   AI-Root   9: E(AI)=    2.111 eV -> LF-Root   9:     2.145 eV    S= 0.999 Delta=   -0.034 eV
   RMS error for this block =     0.088 eV =     707.8 cm**-1 

Block   2
---------
   AI-Root   0: E(AI)=    1.034 eV -> LF-Root   0:     1.133 eV    S= 0.994 Delta=   -0.098 eV
   AI-Root   1: E(AI)=    1.386 eV -> LF-Root   1:     1.491 eV    S= 0.999 Delta=   -0.106 eV
   AI-Root   2: E(AI)=    1.494 eV -> LF-Root   2:     1.462 eV    S= 0.997 Delta=    0.032 eV
   AI-Root   3: E(AI)=    1.494 eV -> LF-Root   3:     1.462 eV    S= 0.997 Delta=    0.032 eV
   AI-Root   4: E(AI)=    1.685 eV -> LF-Root   4:     1.724 eV    S= 1.000 Delta=   -0.039 eV
   AI-Root   5: E(AI)=    1.862 eV -> LF-Root   5:     1.820 eV    S= 1.000 Delta=    0.042 eV
   AI-Root   6: E(AI)=    2.017 eV -> LF-Root   6:     1.923 eV    S= 0.994 Delta=    0.094 eV
   AI-Root   7: E(AI)=    2.366 eV -> LF-Root   7:     2.272 eV    S= 0.986 Delta=    0.094 eV
   AI-Root   8: E(AI)=    2.366 eV -> LF-Root   8:     2.272 eV    S= 0.986 Delta=    0.094 eV
   AI-Root   9: E(AI)=    2.677 eV -> LF-Root   9:     2.551 eV    S= 0.999 Delta=    0.125 eV
   AI-Root  10: E(AI)=    2.802 eV -> LF-Root  10:     2.639 eV    S= 1.000 Delta=    0.164 eV
   AI-Root  11: E(AI)=    2.875 eV -> LF-Root  11:     2.739 eV    S= 0.998 Delta=    0.136 eV
   AI-Root  12: E(AI)=    2.875 eV -> LF-Root  12:     2.739 eV    S= 0.998 Delta=    0.136 eV
   AI-Root  13: E(AI)=    2.899 eV -> LF-Root  13:     2.778 eV    S= 1.000 Delta=    0.120 eV
   AI-Root  14: E(AI)=    5.460 eV -> LF-Root  14:     5.460 eV    S= 1.000 Delta=    0.000 eV
   RMS error for this block =     0.099 eV =     797.6 cm**-1 

Total RMS error g=     0.097 eV =     778.7 cm**-1
Note: Dropped RMS error for the reference energy.

Confidence intervals (95%) computed from the square root of the
diagonal elements of the covariance matrix:
H(dz2   ,dz2   )=  0.001010730 a.u. =     0.028 eV =     221.8 cm**-1
H(dxz   ,dz2   )=  0.000760798 a.u. =     0.021 eV =     167.0 cm**-1
H(dxz   ,dxz   )=  0.001010730 a.u. =     0.028 eV =     221.8 cm**-1
H(dyz   ,dz2   )=  0.000760798 a.u. =     0.021 eV =     167.0 cm**-1
H(dyz   ,dxz   )=  0.000760798 a.u. =     0.021 eV =     167.0 cm**-1
H(dyz   ,dyz   )=  0.001010730 a.u. =     0.028 eV =     221.8 cm**-1
H(dx2-y2,dz2   )=  0.000760798 a.u. =     0.021 eV =     167.0 cm**-1
H(dx2-y2,dxz   )=  0.000760798 a.u. =     0.021 eV =     167.0 cm**-1
H(dx2-y2,dyz   )=  0.000760798 a.u. =     0.021 eV =     167.0 cm**-1
H(dx2-y2,dx2-y2)=  0.001010730 a.u. =     0.028 eV =     221.8 cm**-1
H(dxy   ,dz2   )=  0.000760798 a.u. =     0.021 eV =     167.0 cm**-1
H(dxy   ,dxz   )=  0.000760798 a.u. =     0.021 eV =     167.0 cm**-1
H(dxy   ,dyz   )=  0.000760798 a.u. =     0.021 eV =     167.0 cm**-1
H(dxy   ,dx2-y2)=  0.000760798 a.u. =     0.021 eV =     167.0 cm**-1
H(dxy   ,dxy   )=  0.001010730 a.u. =     0.028 eV =     221.8 cm**-1
F2dd            =  0.004540278 a.u. =     0.124 eV =     996.5 cm**-1
F4dd            =  0.005867293 a.u. =     0.160 eV =    1287.7 cm**-1
Pearson's correlation coefficient =    1.000 (should be close to 1)

----------------------------------------------
SPIN ORBIT COUPLING (based on CASSCF orbitals)
----------------------------------------------

AI-SOC-X integrals (cm-1)
                  0          1          2          3          4    
      0       0.000000   0.000000 2480.849771   0.000000  -0.000000
      1      -0.000000  -0.000000  -0.000000  -0.000000 1450.138268
      2     -2480.849771   0.000000   0.000000 -1430.713994  -0.000000
      3      -0.000000   0.000000 1430.713994  -0.000000  -0.000000
      4       0.000000 -1450.138268   0.000000   0.000000  -0.000000
AI-SOC-Y integrals (cm-1)
                  0          1          2          3          4    
      0      -0.000000 -2480.849771  -0.000000   0.000000   0.000000
      1     2480.849771  -0.000000  -0.000000 -1430.713994  -0.000000
      2       0.000000   0.000000  -0.000000  -0.000000 -1450.138268
      3      -0.000000 1430.713994   0.000000   0.000000  -0.000000
      4      -0.000000   0.000000 1450.138268   0.000000  -0.000000
AI-SOC-Z integrals (cm-1)
                  0          1          2          3          4    
      0       0.000000   0.000000  -0.000000  -0.000000  -0.000000
      1      -0.000000   0.000000 -1442.988367  -0.000000  -0.000000
      2       0.000000 1442.988367  -0.000000  -0.000000  -0.000000
      3       0.000000   0.000000   0.000000   0.000000 -2875.423097
      4       0.000000   0.000000   0.000000 2875.423097   0.000000

Fit to the SOC matrix elements
a = 15.000000
b =     2.672 eV =   21549.5 cm**-1
SOC constant zeta =     0.178 eV =    1436.6 cm**-1


LF-SOC-X integrals (cm-1)
                  0          1          2          3          4    
      0       0.000000  -0.000000 2488.316704  -0.000000  -0.000000
      1       0.000000   0.000000  -0.000000  -0.000000 1436.630319
      2     -2488.316704   0.000000   0.000000 -1436.630319  -0.000000
      3       0.000000   0.000000 1436.630319   0.000000  -0.000000
      4       0.000000 -1436.630319   0.000000   0.000000   0.000000
LF-SOC-Y integrals (cm-1)
                  0          1          2          3          4    
      0       0.000000 -2488.316704  -0.000000  -0.000000  -0.000000
      1     2488.316704   0.000000  -0.000000 -1436.630319  -0.000000
      2       0.000000   0.000000   0.000000  -0.000000 -1436.630319
      3       0.000000 1436.630319   0.000000   0.000000  -0.000000
      4       0.000000   0.000000 1436.630319   0.000000   0.000000
LF-SOC-Z integrals (cm-1)
                  0          1          2          3          4    
      0       0.000000  -0.000000  -0.000000  -0.000000  -0.000000
      1       0.000000   0.000000 -1436.630319  -0.000000  -0.000000
      2       0.000000 1436.630319   0.000000  -0.000000  -0.000000
      3       0.000000   0.000000   0.000000   0.000000 -2873.260638
      4       0.000000   0.000000   0.000000 2873.260638   0.000000

RMS error of nonzero matrix elements =    8.6 cm**-1


-----SOC-CONSTANTS-----
---All Values in cm-1---
ZETA_D = 1436.63 
------------------------




---AILFT COMPLETED SUCCESFULLY!---
-------------------------------------------------------------------------------
                     ORCA-AILFT TERMINATED SUCCESFULLY
-------------------------------------------------------------------------------


--------------
CASSCF TIMINGS
--------------

Total time                       ...        1.4 sec
Sum of individual times          ...        1.3 sec ( 97.9%)

Calculation of AO operators
Calculation of MO transformed quantities
Configuration interaction steps
   CI-setup phase                ...        0.7 sec ( 48.0%)
Orbital improvement steps
Properties                       ...        0.7 sec ( 49.7%)
   SOC integral calculation      ...        0.0 sec (  0.0%)
   SSC RMEs (incl. integrals)    ...        0.0 sec (  0.0%)
   SOC RMEs                      ...        0.0 sec (  0.2%)

Maximum memory used throughout the entire CASSCF-calculation: 53.9 MB

-------------------------   --------------------
FINAL SINGLE POINT ENERGY     -5441.261674595679
-------------------------   --------------------


------------------------------------------------------------------------------
                              ORCA PROPERTY CALCULATIONS
------------------------------------------------------------------------------

GBWName                                 ... run_D4h_Pd.gbw
Number of atoms                         ...      5
Number of basis functions               ...    205
Max core memory                         ...  14000 MB

Electric properties:
Dipole moment                           ... YES(DKH)
Quadrupole moment                       ...  NO
Static polarizability (Dipole/Dipole)   ...  NO
Static polarizability (Dipole/Quad.)    ...  NO
Static polarizability (Quad./Quad.)     ...  NO
Static polarizability (Velocity)        ...  NO

Atomic electric properties:
Dipole moment                           ...  NO
Quadrupole moment                       ...  NO
Static polarizability                   ...  NO

Choice of electric origin               ... Center of mass
Position of electric origin             ...     0.000000     0.000000     0.000000

General magnetic properties:
Magnetizability                         ...  NO

EPR properties:
g-Tensor (aka g-matrix)                 ...  NO
Zero-Field splitting spin-orbit         ...  NO
Zero-field splitting spin-spin          ...  NO
Hyperfine couplings                     ...  NO (   0 nuclei)
Quadrupole couplings                    ...  NO (   0 nuclei)
Contact density                         ...  NO (   0 nuclei)

NMR properties:
Chemical shifts                         ...  NO (   0 nuclei)
Spin-rotation constants                 ...  NO (   0 nuclei)
Spin-spin couplings                     ...  NO (   0 nuclei,    0 pairs)

Choice of magnetic origin               ... GIAO
Position of magnetic origin             ...     0.000000     0.000000     0.000000

Properties with geometric perturbations:
SCF Hessian                             ...  NO
IR spectrum                             ...  NO
VCD spectrum                            ...  NO
X-ray spectroscopy properties:
SCF XES/XAS/RIXS spectra                ...  NO

DKH transformation order                ... Second
Note: picture-change corrections are only included
      for the properties annotated with "YES(DKH)"!


-------------
DIPOLE MOMENT
-------------

Method             : CASSCF
Type of density    : Electron Density
Level              : Unrelaxed density
State              :  -1
Multiplicity       :  -1
Irrep              :   0
Energy             : -5439.6647431674127802 Eh
Relativity type    : 
Basis              : AO
                                X                 Y                 Z
Electronic contribution:     -0.000000000      -0.000000001       0.000000000
Nuclear contribution   :      0.000000000       0.000000000       0.000000000
                        -----------------------------------------
Total Dipole Moment    :     -0.000000000      -0.000000001       0.000000000
                        -----------------------------------------
Magnitude (a.u.)       :      0.000000001
Magnitude (Debye)      :      0.000000003



--------------------
Rotational spectrum 
--------------------
 
Rotational constants in cm-1:             0.049297             0.049297             0.024648 
Rotational constants in MHz :          1477.873342          1477.873342           738.936671 

Dipole components along the rotational axes: 
x,y,z [a.u.] :    -0.000000    -0.000000     0.000000 
x,y,z [Debye]:    -0.000000    -0.000000     0.000000 

 

Dipole moment calculation done in   0.0 sec 

Maximum memory used throughout the entire PROP-calculation: 25.6 MB

--------------------------------
SUGGESTED CITATIONS FOR THIS RUN
--------------------------------

Below you find a list of papers that are relevant to this ORCA run
We neither can nor want to force you to cite these papers, but we appreciate if you do
You receive ORCA, which is the product of decades of hard work by many enthusiastic individuals, for free
The only thing we kindly ask in return is that you cite our papers,
We deeply appreciate it, if you show your appreciation for ORCA by not just citing the generic ORCA reference.

Please note that relegating all ORCA citations to the supporting information does *not* help us.
SI sections are not indexed - citations you put there will not count into any citation statistics
But we need these citations in order to attract the funding resources that allow us to do what we are doing

Therefore, if you are a happy ORCA user, please consider citing a few of the papers listed below in the main body of your paper

In addition to the list printed below, the program has created the file run_D4h_Pd.bibtex that contains the list in bibtex format
You can import this file easily into all common literature databanks and citation aid programs


List of essential papers. We consider these as the minimum necessary citations

  1. Neese,F.
     Software update: the ORCA program system, version 5.0
     WIRES Comput. Molec. Sci., 2022 12(1)e1606
     doi.org/10.1002/wcms.1606

List of papers to cite with high priority. The work reported in these papers was absolutely
necessary for this run to complete.
Our perspective: the developers of density functionals and basis sets usually get cited in chemistry papers
Good! But without the algorithms to do something with them, the functionals or basis sets would not do anything.
Hence, in our opinion, the algorithm design and method developments papers are equally worthy of getting cited

  1. Ganyushin,D.; Neese,F.
     First-principles calculations of zero-field splitting parameters
     J. Chem. Phys., 2006 125(2)Art. No. 024103
     doi.org/10.1063/1.2213976
  2. Atanasov,M.; Ganyushin,D.; Sivalingam,K.; Neese,F.
     A Modern First-Principles View on Ligand Field Theory Through the Eyes of Correlated Multireference Wavefunctions
     Struct. Bond., 2012 142 149-220
     doi.org/10.1007/430_2011_57
  3. Stoychev,G.L.; Auer,A.A.; Neese,F.
     Automatic Generation of Auxiliary Basis Sets
     J. Theo. Comp. Chem., 2017 13 554-562
     doi.org/10.1021/acs.jctc.6b01041
  4. Kollmar,C.; Sivalingam,K.; Helmich-Paris,B.; Angeli,C.; Neese,F.
     A perturbation-based super-CI approach for the orbital optimization of a CASSCF wave function
     J. Comput. Chem., 2019 40 1463-1470
     doi.org/10.1002/jcc.25801
  5. Lang,L.; Neese,F.
     Spin-dependent properties in the framework of the dynamic correlation dressed complete active space method
     J. Chem. Phys., 2019 150 
     doi.org/10.1063/1.5085203
  6. Kollmar,C.; Sivalingam,K.; Neese,F.
     An efficient implementation of the NEVPT2 and CASPT2 methods avoiding higher-order density matrices
     J. Chem. Phys., 2021 155 234104
     doi.org/10.1063/5.0072129
  7. Guo,Y.; Sivalingam,K.; Neese,F.
     Approximations of density matrices in N-electron valence state second-order perturbation theory (NEVPT2). I. Revisiting the NEVPT2 construction
     J. Chem. Phys., 2021 154 214111
  8. Neese,F.
     The SHARK Integral Generation and Digestion System
     J. Comp. Chem., 2022  1-16
     doi.org/10.1002/jcc.26942
  9. Ugandi,M.; Roemelt,M.
     A recursive formulation of one-electron coupling coefficients for spin-adapted configuration interaction calculations featuring many unpaired electrons
     Int. J. Quantum Chem., 2023 123 e27045
     doi.org/10.1002/qua.27045

List of suggested additional citations. These are papers that are important in the 'surrounding' of 
of this run, or papers that preceded the highly important papers. If you like your results we are grateful for a citation.

  1. Neese,F.
     The ORCA program system
     WIRES Comput. Molec. Sci., 2012 2(1)73-78
     doi.org/10.1002/wcms.81
  2. Schapiro,I.; Sivalingam,K.; Neese,F.
     Assessment of n-Electron Valence State Perturbation Theory for Vertical Excitation Energies
     J. Theo. Comp. Chem., 2013 9 3567-3580
     doi.org/10.1021/ct400136y
  3. Neese,F.
     Software update: the ORCA program system, version 4.0
     WIRES Comput. Molec. Sci., 2018 8(1)1-6
     doi.org/10.1002/wcms.1327
  4. Neese,F.; Wennmohs,F.; Becker,U.; Riplinger,C.
     The ORCA quantum chemistry program package
     J. Chem. Phys., 2020 152 Art. No. L224108
     doi.org/10.1063/5.0004608
  5. Guo,Y.; Sivalingam,K.; Kollmar,C.; Neese,F.
     Approximations of density matrices in N-electron valence state second-order perturbation theory (NEVPT2). II. The full rank NEVPT2 (FR-NEVPT2) formulation
     J. Chem. Phys., 2021 154 214113

List of optional additional citations

  1. Neese,F.
     Approximate second-order SCF convergence for spin unrestricted wavefunctions
     Chem. Phys. Lett., 2000 325(1-3)93-98
     doi.org/10.1016/s0009-2614(00)00662-x

Timings for individual modules:

Sum of individual times          ...      177.749 sec (=   2.962 min)
Startup calculation              ...        0.886 sec (=   0.015 min)   0.5 %
Relativistic integrals           ...        0.254 sec (=   0.004 min)   0.1 %
SCF iterations                   ...        0.251 sec (=   0.004 min)   0.1 %
CASSCF iterations                ...      142.122 sec (=   2.369 min)  80.0 %
Property integrals               ...       33.910 sec (=   0.565 min)  19.1 %
Property calculations            ...        0.326 sec (=   0.005 min)   0.2 %
                             ****ORCA TERMINATED NORMALLY****
TOTAL RUN TIME: 0 days 0 hours 2 minutes 57 seconds 900 msec
