
                                 *****************
                                 * O   R   C   A *
                                 *****************

                                            #,                                       
                                            ###                                      
                                            ####                                     
                                            #####                                    
                                            ######                                   
                                           ########,                                 
                                     ,,################,,,,,                         
                               ,,#################################,,                 
                          ,,##########################################,,             
                       ,#########################################, ''#####,          
                    ,#############################################,,   '####,        
                  ,##################################################,,,,####,       
                ,###########''''           ''''###############################       
              ,#####''   ,,,,##########,,,,          '''####'''          '####       
            ,##' ,,,,###########################,,,                        '##       
           ' ,,###''''                  '''############,,,                           
         ,,##''                                '''############,,,,        ,,,,,,###''
      ,#''                                            '''#######################'''  
     '                                                          ''''####''''         
             ,#######,   #######,   ,#######,      ##                                
            ,#'     '#,  ##    ##  ,#'     '#,    #''#        ,####,   ,####,        
            ##       ##  ##   ,#'  ##            #'  '#       #'       #'  '#        
            ##       ##  #######   ##           ,######,      #####,   #    #        
            '#,     ,#'  ##    ##  '#,     ,#' ,#      #,     #,   #   #,  ,#        
             '#######'   ##     ##  '#######'  #'      '#     '####' # '####'        



                #########################################################
                #                        -***-                          #
                #          Department of theory and spectroscopy        #
                #                                                       #
                #                      Frank Neese                      #
                #                                                       #
                #     Directorship, Architecture, Infrastructure        #
                #                    SHARK, DRIVERS                     #
                #        Core code/Algorithms in most modules           #
                #                                                       #
                #        Max Planck Institute fuer Kohlenforschung      #
                #                Kaiser Wilhelm Platz 1                 #
                #                 D-45470 Muelheim/Ruhr                 #
                #                      Germany                          #
                #                                                       #
                #                  All rights reserved                  #
                #                        -***-                          #
                #########################################################


                         Program Version 6.0.0  -   RELEASE  -


 With contributions from (in alphabetic order):
   Daniel Aravena         : Magnetic Suceptibility
   Michael Atanasov       : Ab Initio Ligand Field Theory (pilot matlab implementation)
   Alexander A. Auer      : GIAO ZORA, VPT2 properties, NMR spectrum
   Ute Becker             : All parallelization in ORCA, NUMFREQ, NUMCALC
   Giovanni Bistoni       : ED, misc. LED, open-shell LED, HFLD
   Martin Brehm           : Molecular dynamics
   Dmytro Bykov           : pre 5.0 version of the SCF Hessian
   Marcos Casanova-Páez   : Triplet and SCS-CIS(D). UHF-(DLPNO)-IP/EA/STEOM-CCSD. UHF-CVS-IP/STEOM-CCSD
   Vijay G. Chilkuri      : MRCI spin determinant printing, contributions to CSF-ICE
   Pauline Colinet        : FMM embedding
   Dipayan Datta          : RHF DLPNO-CCSD density
   Achintya Kumar Dutta   : EOM-CC, STEOM-CC
   Nicolas Foglia         : Exact transition moments, OPA infrastructure, MCD improvements
   Dmitry Ganyushin       : Spin-Orbit,Spin-Spin,Magnetic field MRCI
   Miquel Garcia          : C-PCM and meta-GGA Hessian, CCSD/C-PCM, Gaussian charge scheme
   Tiago L. C. Gouveia    : GS-ROHF, GS-ROCIS
   Yang Guo               : DLPNO-NEVPT2, F12-NEVPT2, CIM, IAO-localization
   Andreas Hansen         : Spin unrestricted coupled pair/coupled cluster methods
   Ingolf Harden          : AUTO-CI MPn and infrastructure 
   Benjamin Helmich-Paris : MC-RPA, TRAH-(SCF,CASSCF), AVAS, COSX integrals, SCF dyn. polar.
   Lee Huntington         : MR-EOM, pCC
   Robert Izsak           : Overlap fitted RIJCOSX, COSX-SCS-MP3, EOM
   Riya Kayal             : Wick's Theorem for AUTO-CI, AUTO-CI UHF-CCSDT
   Emily Kempfer          : AUTO-CI, RHF CISDT and CCSDT
   Christian Kollmar      : KDIIS, OOCD, Brueckner-CCSD(T), CCSD density, CASPT2, CASPT2-K, improved NEVPT2
   Axel Koslowski         : Symmetry handling
   Simone Kossmann        : Meta GGA functionals, TD-DFT gradient, OOMP2, (MP2 Hessian; deprecated post 5.0)
   Lucas Lang             : DCDCAS
   Marvin Lechner         : AUTO-CI (C++ implementation), FIC-MRCC
   Spencer Leger          : CASSCF response
   Dagmar Lenk            : GEPOL surface, SMD, ORCA-2-JSON
   Dimitrios Liakos       : Extrapolation schemes; Compound Job, initial MDCI parallelization
   Dimitrios Manganas     : Further ROCIS development; embedding schemes. LFT, Crystal Embedding
   Dimitrios Pantazis     : SARC Basis sets
   Anastasios Papadopoulos: AUTO-CI, single reference methods and gradients
   Taras Petrenko         : pre 6.0 DFT Hessian and TD-DFT gradient, (ASA, deprecated), ECA, 1-Electron XAS/XES, NRVS
   Peter Pinski           : DLPNO-MP2, DLPNO-MP2 Gradient
   Christoph Reimann      : Effective Core Potentials
   Marius Retegan         : Local ZFS, SOC
   Christoph Riplinger    : Optimizer, TS searches, QM/MM, DLPNO-CCSD(T), (RO)-DLPNO pert. Triples
   Michael Roemelt        : Original ROCIS implementation
   Masaaki Saitow         : Open-shell DLPNO-CCSD energy and density
   Barbara Sandhoefer     : DKH picture change effects
   Kantharuban Sivalingam : CASSCF convergence/infrastructure, NEVPT2 and variants, FIC-MRCI
   Bernardo de Souza      : ESD, SOC TD-DFT
   Georgi Stoychev        : AutoAux, RI-MP2 NMR, DLPNO-MP2 response, X2C
   Van Anh Tran           : RI-MP2 g-tensors
   Willem Van den Heuvel  : Paramagnetic NMR
   Zikuan Wang            : NOTCH, Electric field optimization 
   Frank Wennmohs         : Technical directorship and infrastructure
   Hang Xu                : AUTO-CI-Response properties 


 We gratefully acknowledge several colleagues who have allowed us to
 interface, adapt or use parts of their codes:
   Stefan Grimme, W. Hujo, H. Kruse, P. Pracht,  : VdW corrections, initial TS optimization,
                  C. Bannwarth, S. Ehlert,         DFT functionals, gCP, sTDA/sTD-DF
                  L. Wittmann, M. Mueller
   Ed Valeev, F. Pavosevic, A. Kumar             : LibInt (2-el integral package), F12 methods
   Garnet Chan, S. Sharma, J. Yang, R. Olivares  : DMRG
   Ulf Ekstrom                                   : XCFun DFT Library
   Mihaly Kallay                                 : mrcc  (arbitrary order and MRCC methods)
   Frank Weinhold                                : gennbo (NPA and NBO analysis)
   Simon Mueller                                 : openCOSMO-RS
   Christopher J. Cramer and Donald G. Truhlar   : smd solvation model
   Lars Goerigk                                  : TD-DFT with DH, B97 family of functionals
   V. Asgeirsson, H. Jonsson                     : NEB implementation
   FAccTs GmbH                                   : IRC, NEB, NEB-TS, DLPNO-Multilevel, CI-OPT
                                                   MM, QMMM, 2- and 3-layer-ONIOM, Crystal-QMMM,
                                                   LR-CPCM, SF, NACMEs, symmetry and pop. for TD-DFT,
                                                   nearIR, NL-DFT gradient (VV10), updates on ESD,
                                                   ML-optimized integration grids, MBIS, APM,
                                                   GOAT, DOCKER, SOLVATOR, interface openCOSMO-RS
   S Lehtola, MJT Oliveira, MAL Marques          : LibXC Library
   Liviu Ungur et al                             : ANISO software


 Your calculation uses the libint2 library for the computation of 2-el integrals
 For citations please refer to: http://libint.valeyev.net

 Your ORCA version has been built with support for libXC version: 6.2.2
 For citations please refer to: https://libxc.gitlab.io

 This ORCA versions uses:
   CBLAS   interface :  Fast vector & matrix operations
   LAPACKE interface :  Fast linear algebra routines
   SCALAPACK package :  Parallel linear algebra routines
   Shared memory     :  Shared parallel matrices
   BLAS/LAPACK       :  OpenBLAS 0.3.27  USE64BITINT DYNAMIC_ARCH NO_AFFINITY Zen SINGLE_THREADED
        Core in use  :  Zen
   Copyright (c) 2011-2014, The OpenBLAS Project


NOTE: MaxCore=14000 MB was set to SCF,MP2,MDCI,CIPSI,MRCI and CIS
      => If you want to overwrite this, your respective input block should be placed after the MaxCore statement
================================================================================

----- Orbital basis set information -----
Your calculation utilizes the basis: DKH-def2-TZVP
   Exponents from def2-TZVP [F. Weigend and R. Ahlrichs, Phys. Chem. Chem. Phys. 7, 3297 (2005)],
   recontracted for DKH2 by D. A. Pantazis.

The basis set includes element-specific modifications.

Your calculation utilizes the basis: SARC-DKH-TZVP 
   Rb-Xe:  J. D. Rolfes, F. Neese and D. A. Pantazis, J. Comput. Chem. 41, 1842 (2020).
   La-Lu:  D. A. Pantazis and F. Neese, J. Chem. Theory Comput. 5, 2229 (2009).
   Hf-Hg:  D. A. Pantazis, X. Y. Chen, C. R. Landis and F. Neese, J. Chem. Theory Comput. 4, 908 (2008).
   Tl-Rn:  D. A. Pantazis and F. Neese, Theor. Chem. Acc. 131, 1292 (2012).
   Ac-Lr:  D. A. Pantazis and F. Neese, J. Chem. Theory Comput. 7, 677 (2011).

----- AuxJ basis set information -----
Your calculation utilizes the AutoAux generation procedure.
  G. L. Stoychev, A. A. Auer, F. Neese, J. Chem. Theory Comput. 13, 554 (2017)

----- AuxC basis set information -----
Your calculation utilizes the AutoAux generation procedure.
  G. L. Stoychev, A. A. Auer, F. Neese, J. Chem. Theory Comput. 13, 554 (2017)

----- AuxJK basis set information -----
Your calculation utilizes the AutoAux generation procedure.
  G. L. Stoychev, A. A. Auer, F. Neese, J. Chem. Theory Comput. 13, 554 (2017)

----- AuxX basis set information -----
Your calculation utilizes the AutoAux generation procedure.
  G. L. Stoychev, A. A. Auer, F. Neese, J. Chem. Theory Comput. 13, 554 (2017)

================================================================================
                                        WARNINGS
                       Please study these warnings very carefully!
================================================================================


WARNING: Relativistic property calculations require picture change transformations!
  ===> : Setting %rel PictureChange = 2

IMPORTANT NOTE: CASSCF must signal convergence for a subsequent CASPT2/NEVPT2! 
                Set maxiter=1 to run CASPT2/NEVPT2 with arbitrary orbitals.


================================================================================
                                       INPUT FILE
================================================================================
NAME = run_D4h_Pt.inp
|  1>   !DKH DKH-def2-TZVP AutoAux TightSCF
|  2> 
|  3>   %maxcore 14000
|  4> 
|  5>   %basis
|  6>   newgto Pt "SARC-DKH-TZVP" end
|  7>   end
|  8> 
|  9>   %scf rotate
| 10>    {18,34}
| 11>    {19,35}
| 12>    {20,36}
| 13>    {21,37}
| 14>    {22,38}
| 15>    end
| 16>   end
| 17> 
| 18>   %casscf
| 19>   nel 8
| 20>     norb 5
| 21>     mult 3, 1
| 22>     nroots 10, 15
| 23>     trafostep RI
| 24>     etol 1e-6
| 25>     actorbs dorbs
| 26>     nevpt2 sc
| 27>     printlevel 3
| 28>     maxiter 10000
| 29>    rel
| 30>      dosoc true
| 31>    end
| 32>   end
| 33> 
| 34>   *xyz -2 3
| 35>   F    3.0   0.0   0.0
| 36>   F   -3.0   0.0   0.0
| 37>   F    0.0   3.0   0.0
| 38>   F    0.0   -3.0   0.0
| 39>   Pt   0.0   0.0   0.0
| 40>   *
| 41> 
| 42> 
| 43>                          ****END OF INPUT****
================================================================================

                       ****************************
                       * Single Point Calculation *
                       ****************************

---------------------------------
CARTESIAN COORDINATES (ANGSTROEM)
---------------------------------
  F      3.000000    0.000000    0.000000
  F     -3.000000    0.000000    0.000000
  F      0.000000    3.000000    0.000000
  F      0.000000   -3.000000    0.000000
  Pt     0.000000    0.000000    0.000000

----------------------------
CARTESIAN COORDINATES (A.U.)
----------------------------
  NO LB      ZA    FRAG     MASS         X           Y           Z
   0 F     9.0000    0    18.998    5.669178    0.000000    0.000000
   1 F     9.0000    0    18.998   -5.669178    0.000000    0.000000
   2 F     9.0000    0    18.998    0.000000    5.669178    0.000000
   3 F     9.0000    0    18.998    0.000000   -5.669178    0.000000
   4 Pt   78.0000    0   195.090    0.000000    0.000000    0.000000

--------------------------------
INTERNAL COORDINATES (ANGSTROEM)
--------------------------------
 F      0   0   0     0.000000000000     0.00000000     0.00000000
 F      1   0   0     6.000000000000     0.00000000     0.00000000
 F      1   2   0     4.242640687119    45.00000000     0.00000000
 F      1   2   3     4.242640687119    45.00000000   180.00000000
 Pt     1   2   3     3.000000000000     0.00000000     0.00000000

---------------------------
INTERNAL COORDINATES (A.U.)
---------------------------
 F      0   0   0     0.000000000000     0.00000000     0.00000000
 F      1   0   0    11.338356803528     0.00000000     0.00000000
 F      1   2   0     8.017428983287    45.00000000     0.00000000
 F      1   2   3     8.017428983287    45.00000000   180.00000000
 Pt     1   2   3     5.669178401764     0.00000000     0.00000000

---------------------
BASIS SET INFORMATION
---------------------
There are 2 groups of distinct atoms

 Group   1 Type F   : 11s6p2d1f contracted to 6s3p2d1f pattern {611111/411/11/1}
 Group   2 Type Pt  : 22s15p11d6f contracted to 17s11p8d3f pattern {61111111111111111/51111111111/41111111/411}

Atom   0F    basis set group =>   1
Atom   1F    basis set group =>   1
Atom   2F    basis set group =>   1
Atom   3F    basis set group =>   1
Atom   4Pt   basis set group =>   2
---------------------------------
AUXILIARY/J BASIS SET INFORMATION
---------------------------------
There are 2 groups of distinct atoms

 Group   1 Type F   : 16s13p12d7f3g contracted to 16s13p12d7f3g pattern {1111111111111111/1111111111111/111111111111/1111111/111}
 Group   2 Type Pt  : 30s27p26d26f18g13h8i contracted to 30s27p26d26f18g13h8i pattern {111111111111111111111111111111/111111111111111111111111111/11111111111111111111111111/11111111111111111111111111/111111111111111111/1111111111111/11111111}

Atom   0F    basis set group =>   1
Atom   1F    basis set group =>   1
Atom   2F    basis set group =>   1
Atom   3F    basis set group =>   1
Atom   4Pt   basis set group =>   2
---------------------------------
AUXILIARY/C BASIS SET INFORMATION
---------------------------------
There are 2 groups of distinct atoms

 Group   1 Type F   : 16s13p12d7f3g contracted to 16s13p12d7f3g pattern {1111111111111111/1111111111111/111111111111/1111111/111}
 Group   2 Type Pt  : 30s27p26d26f18g13h8i contracted to 30s27p26d26f18g13h8i pattern {111111111111111111111111111111/111111111111111111111111111/11111111111111111111111111/11111111111111111111111111/111111111111111111/1111111111111/11111111}

Atom   0F    basis set group =>   1
Atom   1F    basis set group =>   1
Atom   2F    basis set group =>   1
Atom   3F    basis set group =>   1
Atom   4Pt   basis set group =>   2
----------------------------------
AUXILIARY/JK BASIS SET INFORMATION
----------------------------------
There are 2 groups of distinct atoms

 Group   1 Type F   : 16s13p12d7f3g contracted to 16s13p12d7f3g pattern {1111111111111111/1111111111111/111111111111/1111111/111}
 Group   2 Type Pt  : 30s27p26d26f18g13h8i contracted to 30s27p26d26f18g13h8i pattern {111111111111111111111111111111/111111111111111111111111111/11111111111111111111111111/11111111111111111111111111/111111111111111111/1111111111111/11111111}

Atom   0F    basis set group =>   1
Atom   1F    basis set group =>   1
Atom   2F    basis set group =>   1
Atom   3F    basis set group =>   1
Atom   4Pt   basis set group =>   2
---------------------------------
AUXILIARY/X BASIS SET INFORMATION
---------------------------------
There are 2 groups of distinct atoms

 Group   1 Type F   : 16s13p12d7f3g contracted to 16s13p12d7f3g pattern {1111111111111111/1111111111111/111111111111/1111111/111}
 Group   2 Type Pt  : 30s27p26d26f18g13h8i contracted to 30s27p26d26f18g13h8i pattern {111111111111111111111111111111/111111111111111111111111111/11111111111111111111111111/11111111111111111111111111/111111111111111111/1111111111111/11111111}

Atom   0F    basis set group =>   1
Atom   1F    basis set group =>   1
Atom   2F    basis set group =>   1
Atom   3F    basis set group =>   1
Atom   4Pt   basis set group =>   2
------------------------------------------------------------------------------
                             ORCA STARTUP CALCULATIONS
------------------------------------------------------------------------------
------------------------------------------------------------------------------
                   ___                                                        
                  /   \      - P O W E R E D   B Y -                         
                 /     \                                                     
                 |  |  |   _    _      __       _____    __    __             
                 |  |  |  | |  | |    /  \     |  _  \  |  |  /  |          
                  \  \/   | |  | |   /    \    | | | |  |  | /  /          
                 / \  \   | |__| |  /  /\  \   | |_| |  |  |/  /          
                |  |  |   |  __  | /  /__\  \  |    /   |      \           
                |  |  |   | |  | | |   __   |  |    \   |  |\   \          
                \     /   | |  | | |  |  |  |  | |\  \  |  | \   \       
                 \___/    |_|  |_| |__|  |__|  |_| \__\ |__|  \__/        
                                                                              
                      - O R C A' S   B I G   F R I E N D -                    
                                      &                                       
                       - I N T E G R A L  F E E D E R -                       
                                                                              
 v1 FN, 2020, v2 2021, v3 2022-2024                                           
------------------------------------------------------------------------------


----------------------
SHARK INTEGRAL PACKAGE
----------------------

Number of atoms                             ...      5
Number of basis functions                   ...    239
Number of shells                            ...     87
Maximum angular momentum                    ...      3
Integral batch strategy                     ... SHARK/LIBINT Hybrid
RI-J (if used) integral strategy            ... SPLIT-RIJ (Revised 2003 algorithm where possible)
Printlevel                                  ...      1
Contraction scheme used                     ... SEGMENTED contraction
Prescreening option                         ... SCHWARTZ
   Thresh                                   ... 2.500e-11
   Tcut                                     ... 2.500e-12
   Tpresel                                  ... 2.500e-12 
Coulomb Range Separation                    ... NOT USED
Exchange Range Separation                   ... NOT USED
Multipole approximations                    ... NOT USED
Finite Nucleus Model                        ... NOT USED
CABS basis                                  ... NOT available
Auxiliary Coulomb fitting basis             ... AVAILABLE
   # of basis functions in Aux-J            ...   1596
   # of shells in Aux-J                     ...    352
   Maximum angular momentum in Aux-J        ...      6
Auxiliary J/K fitting basis                 ... AVAILABLE
   # of basis functions in Aux-JK           ...   1596
   # of shells in Aux-JK                    ...    352
   Maximum angular momentum in Aux-JK       ...      6
Auxiliary Correlation fitting basis         ... AVAILABLE
   # of basis functions in Aux-C            ...   1596
   # of shells in Aux-C                     ...    352
   Maximum angular momentum in Aux-C        ...      6
Auxiliary 'external' fitting basis          ... NOT available

Checking pre-screening integrals            ... done (  0.0 sec) Dimension = 87
Check shell pair data                       ... done (  0.0 sec)
Shell pair information
Shell pair cut-off parameter TPreSel        ...   2.5e-12
Total number of shell pairs                 ...      3828
Shell pairs after pre-screening             ...      2512
Total number of primitive shell pairs       ...      9166
Primitive shell pairs kept                  ...      4654
          la=0 lb=0:    495 shell pairs
          la=1 lb=0:    647 shell pairs
          la=1 lb=1:    228 shell pairs
          la=2 lb=0:    400 shell pairs
          la=2 lb=1:    284 shell pairs
          la=2 lb=2:    100 shell pairs
          la=3 lb=0:    159 shell pairs
          la=3 lb=1:    113 shell pairs
          la=3 lb=2:     68 shell pairs
          la=3 lb=3:     18 shell pairs

Calculating one electron integrals          ... done (  0.0 sec)
Calculating RI/J V-Matrix + Cholesky decomp.... done (  0.1 sec)
Calculating RI/JK V-Matrix + Cholesky decomp... done (  0.1 sec)
Calculating RI/C V-Matrix + Cholesky decomp.... done (  0.1 sec)
Calculating Nuclear repulsion               ... done (  0.0 sec) ENN=    550.009609176236 Eh

Diagonalization of the overlap matrix:
Smallest eigenvalue                        ... 6.637e-04
Time for diagonalization                   ...    0.003 sec
Threshold for overlap eigenvalues          ... 1.000e-07
Number of eigenvalues below threshold      ... 0
Time for construction of square roots      ...    0.001 sec
Total time needed                          ...    0.004 sec

-------------------
DFT GRID GENERATION
-------------------

General Integration Accuracy     IntAcc      ... 4.388
Radial Grid Type                 RadialGrid  ... OptM3 with GC (2021)
Angular Grid (max. ang.)         AngularGrid ... 4 (Lebedev-302)
Angular grid pruning method      GridPruning ... 4 (adaptive)
Weight generation scheme         WeightScheme... mBecke (2022)
Basis function cutoff            BFCut       ... 1.0000e-11
Integration weight cutoff        WCut        ... 1.0000e-14
Partially contracted basis set               ... off
Rotationally invariant grid construction     ... off
Angular grids for H and He will be reduced by one unit
Core-polarized basis detected: some atoms will have their core
                               angular grid increased.
Steep s-basis detected: some atoms will have their radial
                        grid points doubled.

Total number of grid points                  ...    53676
Total number of batches                      ...      840
Average number of points per batch           ...       63
Average number of grid points per atom       ...    10735
Initializing property integral containers    ... done (  0.0 sec)

SHARK setup successfully completed in   0.8 seconds

Maximum memory used throughout the entire STARTUP-calculation: 60.7 MB
------------------------------------------------------------------------------
                          ORCA RELATIVISTIC HAMILTONIAN
------------------------------------------------------------------------------

Relativistic Method            ... DKH
Order of DKH treatment         ...   2
Treatment of potential         ... V(e,N)
Eps parameter for DKH          ...   0.00000000010000
Nucleus model                  ... Point Nucleus
Speed of light used            ... 137.03598950000000


            ************************************************
            *        DOUGLAS-KROLL-HESS HAMILTONIAN        *
            *   Programmed by FN according to literature   *
            *        procedures. Special thanks to         *
            *       B.A. Hess, M. Reiher and A. Wolf       *
            *     University Erlangen-Nuernberg/Bonn       *
            ************************************************

Uncontracting the basis (first version)        ... done
Number of contracted basis functions           ...  239
Number of uncontracted basis functions         ...  348
Initializing the DKH file                      ... done
Calculating the relativistic integrals         ... done
Storing DKH matrices                           ... done
Computing the DKH transformation               ... done
Storing the transformation variables           ... done
Transforming V and pVp to p**2 space           ... done
First transformation of V and pVp              ... done
Second transformation of Veff                  ... done
Adding kinetic energy                          ... done
Back transformation of Veff to r-space         ... done
Recovering DKH matrices                        ... done
Recontracting the H-matrix (first version)     ... done
Computing the DKH correction to the H-matrix   ... done
Reading the original H-matrix                  ... done
Adding DKH correction to the H-matrix          ... done
Storing the new modified H-matrix              ... done

Maximum memory used throughout the entire REL-calculation: 41.0 MB
-------------------------------------------------------------------------------
                                 ORCA GUESS
                   Start orbitals & Density for SCF / CASSCF
-------------------------------------------------------------------------------

------------
SCF SETTINGS
------------
Hamiltonian:
 Ab initio Hamiltonian  Method          .... Hartree-Fock(GTOs)

Relativistic Settings:
 Scalar relativistic method             .... Douglas-Kroll-Hess
 Order of DKH procedure    Order        ....    2
 Mode of DKH-treatment                  .... V=V(e,N)
 Speed of light used       Velit        ....       137.035989
 Cutoff-constant           Eps          ....            1e-10 


General Settings:
 Integral files         IntName         .... run_D4h_Pt
 Hartree-Fock type      HFTyp           .... CASSCF
 Total Charge           Charge          ....   -2
 Multiplicity           Mult            ....    3
 Number of Electrons    NEL             ....  116
 Basis Dimension        Dim             ....  239
 Nuclear Repulsion      ENuc            ....    550.0096091762 Eh

------------------------------
INITIAL GUESS: MODEL POTENTIAL
------------------------------
Loading DKH relativistic densities                 ... done
Calculating cut-offs                               ... done
Initializing the effective Hamiltonian             ... done
Setting up the integral package (SHARK)            ... done
Starting the Coulomb interaction                   ... done (   0.0 sec)
Making the grid                                    ... done (   0.1 sec)
Mapping shells                                     ... done
Starting the XC term evaluation                    ... done (   0.0 sec)
Transforming the Hamiltonian                       ... done (   0.0 sec)
Diagonalizing the Hamiltonian                      ... done (   0.0 sec)
Back transforming the eigenvectors                 ... done (   0.0 sec)
Now organizing SCF variables                       ... 
-----------------
ORBITAL ROTATIONS
-----------------
  Rotation  18(0)   34(0) cos(t)= 0.000000  sin(t)= 1.000000
  Orbital Energies were swapped
  Rotation  19(0)   35(0) cos(t)= 0.000000  sin(t)= 1.000000
  Orbital Energies were swapped
  Rotation  20(0)   36(0) cos(t)= 0.000000  sin(t)= 1.000000
  Orbital Energies were swapped
  Rotation  21(0)   37(0) cos(t)= 0.000000  sin(t)= 1.000000
  Orbital Energies were swapped
  Rotation  22(0)   38(0) cos(t)= 0.000000  sin(t)= 1.000000
  Orbital Energies were swapped
done
                      ------------------
                      INITIAL GUESS DONE (   0.2 sec)
                      ------------------
             **** ENERGY FILE WAS UPDATED (run_D4h_Pt.en.tmp) ****
Finished Guess after   0.3 sec
Maximum memory used throughout the entire GUESS-calculation: 30.0 MB
-------------------------------------------------------------------------------
                              ORCA-CASSCF
-------------------------------------------------------------------------------

Setting up the integral package     ... Building the CAS space              ... done (10 configurations for Mult=3)
Building the CAS space              ... done (15 configurations for Mult=1)
Memory for address arrays  		      ... done
Make address arrays			      ... done
Memory for buffers 			      ... done
Setting up spin-function prototypes	      ... (MAXOPEN=2) 2 4 done
Trivial cases - DOMO's			      ... done (  0.0 MB)
Number of open shells			    ...  2
domo->virtual excitations			... done (  0.0 MB)
domo->somo excitations				... done (  0.0 MB)
somo->virtual excitations			... done (  0.0 MB)
somo->somo excitations				... done (  0.0 MB)
Coupling container construction done
Memory for address arrays  		      ... done
Make address arrays			      ... done
Memory for buffers 			      ... done
Setting up spin-function prototypes	      ... (MAXOPEN=2) 0 2 4 done
Trivial cases - DOMO's			      ... done (  0.0 MB)
Number of open shells			    ...  0
domo->virtual excitations			... done (  0.0 MB)
domo->somo excitations				... done (  0.0 MB)
somo->virtual excitations			... done (  0.0 MB)
somo->somo excitations				... done (  0.0 MB)
Number of open shells			    ...  2
domo->virtual excitations			... done (  0.0 MB)
domo->somo excitations				... done (  0.0 MB)
somo->virtual excitations			... done (  0.0 MB)
somo->somo excitations				... done (  0.0 MB)
Coupling container construction done

 CASSCF (estimated) memory needed     ... 20.2 MB
 NEVPT2 (estimated) memory needed     ... 66.7 MB


SYSTEM-SPECIFIC SETTINGS:
Number of active electrons          ...    8
Number of active orbitals           ...    5
Total number of electrons           ...  116
Total number of orbitals            ...  239
Total number aux. functions         ... 1596

Determined orbital ranges:
   Internal       0 -   53 (  54 orbitals)
   Active        54 -   58 (   5 orbitals)
   External      59 -  238 ( 180 orbitals)
Number of rotation parameters      ...  10890

CI-STEP:
CI strategy                         ... General CI
Number of multiplicity blocks       ...    2
BLOCK  0 WEIGHT=   0.5000
  Multiplicity                      ...    3
  #(Configurations)                 ...   10
  #(CSFs)                           ...   10
  #(Roots)                          ...   10
    ROOT=0 WEIGHT=    0.050000
    ROOT=1 WEIGHT=    0.050000
    ROOT=2 WEIGHT=    0.050000
    ROOT=3 WEIGHT=    0.050000
    ROOT=4 WEIGHT=    0.050000
    ROOT=5 WEIGHT=    0.050000
    ROOT=6 WEIGHT=    0.050000
    ROOT=7 WEIGHT=    0.050000
    ROOT=8 WEIGHT=    0.050000
    ROOT=9 WEIGHT=    0.050000

BLOCK  1 WEIGHT=   0.5000
  Multiplicity                      ...    1
  #(Configurations)                 ...   15
  #(CSFs)                           ...   15
  #(Roots)                          ...   15
    ROOT=0 WEIGHT=    0.033333
    ROOT=1 WEIGHT=    0.033333
    ROOT=2 WEIGHT=    0.033333
    ROOT=3 WEIGHT=    0.033333
    ROOT=4 WEIGHT=    0.033333
    ROOT=5 WEIGHT=    0.033333
    ROOT=6 WEIGHT=    0.033333
    ROOT=7 WEIGHT=    0.033333
    ROOT=8 WEIGHT=    0.033333
    ROOT=9 WEIGHT=    0.033333
    ROOT=10 WEIGHT=    0.033333
    ROOT=11 WEIGHT=    0.033333
    ROOT=12 WEIGHT=    0.033333
    ROOT=13 WEIGHT=    0.033333
    ROOT=14 WEIGHT=    0.033333

  PrintLevel                        ...    1
  N(GuessMat)                       ...      2048
  MaxDim(CI)                        ...        10
  MaxIter(CI)                       ...        64
  Energy Tolerance CI               ...  1.00e-07
  Residual Tolerance CI             ...  1.00e-07
  Shift(CI)                         ...  1.00e-04

INTEGRAL-TRANSFORMATION-STEP:
  Algorithm                         ... RI-MO

ORBITAL-IMPROVEMENT-STEP:
  Algorithm                         ... SuperCI(PT)
  Default Parametrization           ... CAYLEY
  Act-Act rotations                 ... depends on algorithm used

  Note: SuperCI(PT) will ignore FreezeIE, FreezeAct and FreezeGrad. In general Default settings are encouraged.
        In conjunction with ShiftUp, ShiftDn or GradScaling the performance of SuperCI(PT) is less optimal.  

  MaxRot                            ... 2.00e-01 
  Max. no of vectors (DIIS)         ... 15
  DThresh (cut-off) metric          ... 1.00e-06
  Switch step at gradient           ...  3.00e-02 
  Switch step at iteration          ...        50   
  Switch step to                    ... SuperCI(PT)    

SCF-SETTINGS:
  Incremental                       ... on
  RIJCOSX approximation             ... off
  RI-JK approximation               ... off
  AO integral handling              ... DIRECT
  Integral Neglect Thresh           ...  2.50e-11
  Primitive cutoff TCut             ...  2.50e-12
  Energy convergence tolerance      ...  1.00e-06
  Orbital gradient convergence      ...  2.50e-04
  Max. number of iterations         ...     10000  

PT2-SETTINGS:
  A PT2 calculation will be performed on top of the CASSCF wave function (PT2 = SC-NEVPT2)   
 CI step strategy                   ... General CI
  D4C handling                      ... PS approximation (factorized) 
  CI truncation for D4C at          ...  1.00e-12
  CI truncation for D3  at          ...  1.00e-14
  Orbitals                          ... canonical for each state 
  Last  frozen  orbital             ... 26
  First deleted orbital             ... 239
  RI Step                           ... store IJV(array) (MC_ONDISK during integral transformation) 

FINAL ORBITALS:
  Active   Orbitals                 ... d-orbitals 
  Internal Orbitals                 ... canonical 
  External Orbitals                 ... canonical 

------------------
CAS-SCF ITERATIONS
------------------


MACRO-ITERATION   1: 
   --- Inactive Energy E0 = -18767.82939323 Eh
CI-ITERATION   0: 
-18786.833352649   0.000000000008 (    0.00)
-18786.830190457   0.000000000018
-18786.830190457   0.000000000011
-18786.819199393   0.000000000024
-18786.808100523   0.000000000020
-18786.806224701   0.000000000043
-18786.806224700   0.000000000012
-18786.772210077   0.000000000013
-18786.749485093   0.000000000014
-18786.749485093   0.000000000011
   CI-PROBLEM SOLVED
   DENSITIES MADE
CI-ITERATION   0: 
-18786.803892511   0.000000000013 (    0.00)
-18786.788142116   0.000000000027
-18786.779405909   0.000000000028
-18786.779405909   0.000000000023
-18786.778312623   0.000000000022
-18786.765377031   0.000000000017
-18786.756999856   0.000000000013
-18786.745268754   0.000000000023
-18786.745268754   0.000000000016
-18786.731166499   0.000000000029
-18786.727808132   0.000000000031
-18786.723811270   0.000000000020
-18786.723811270   0.000000000031
-18786.722865923   0.000000000027
-18786.632530697   0.000000000009
   CI-PROBLEM SOLVED
   DENSITIES MADE

                 <<<<<<<<<<<<<<<<<<INITIAL CI STATE CHECK>>>>>>>>>>>>>>>>>>

BLOCK  0 MULT= 3 NROOTS=10 
ROOT   0:  E=  -18786.8333526486 Eh
      1.00000 [     9]: 22211
ROOT   1:  E=  -18786.8301904573 Eh  0.086 eV    694.0 cm**-1
      0.80437 [     6]: 21221
      0.11314 [     3]: 12221
      0.03575 [     2]: 12212
      0.03522 [     1]: 12122
      0.00656 [     5]: 21212
      0.00495 [     4]: 21122
ROOT   2:  E=  -18786.8301904573 Eh  0.086 eV    694.0 cm**-1
      0.80437 [     3]: 12221
      0.11314 [     6]: 21221
      0.03575 [     5]: 21212
      0.03522 [     4]: 21122
      0.00656 [     2]: 12212
      0.00495 [     1]: 12122
ROOT   3:  E=  -18786.8191993926 Eh  0.385 eV   3106.3 cm**-1
      0.71910 [     8]: 22121
      0.28090 [     0]: 11222
ROOT   4:  E=  -18786.8081005229 Eh  0.687 eV   5542.2 cm**-1
      1.00000 [     7]: 22112
ROOT   5:  E=  -18786.8062247005 Eh  0.738 eV   5953.9 cm**-1
      0.80846 [     4]: 21122
      0.18062 [     5]: 21212
      0.00935 [     3]: 12221
ROOT   6:  E=  -18786.8062247004 Eh  0.738 eV   5953.9 cm**-1
      0.80846 [     1]: 12122
      0.18062 [     2]: 12212
      0.00935 [     6]: 21221
ROOT   7:  E=  -18786.7722100774 Eh  1.664 eV  13419.2 cm**-1
      0.71910 [     0]: 11222
      0.28090 [     8]: 22121
ROOT   8:  E=  -18786.7494850930 Eh  2.282 eV  18406.8 cm**-1
      0.60835 [     5]: 21212
      0.16776 [     2]: 12212
      0.11229 [     4]: 21122
      0.05447 [     3]: 12221
      0.03847 [     1]: 12122
      0.01866 [     6]: 21221
ROOT   9:  E=  -18786.7494850930 Eh  2.282 eV  18406.8 cm**-1
      0.60835 [     2]: 12212
      0.16776 [     5]: 21212
      0.11229 [     1]: 12122
      0.05447 [     6]: 21221
      0.03847 [     4]: 21122
      0.01866 [     3]: 12221

BLOCK  1 MULT= 1 NROOTS=15 
ROOT   0:  E=  -18786.8038925114 Eh
      0.91636 [    14]: 22220
      0.02789 [    12]: 22202
      0.02781 [     5]: 20222
      0.02781 [     0]: 02222
ROOT   1:  E=  -18786.7881421162 Eh  0.429 eV   3456.8 cm**-1
      0.92641 [    13]: 22211
      0.07343 [     1]: 11222
ROOT   2:  E=  -18786.7794059091 Eh  0.666 eV   5374.2 cm**-1
      0.84670 [     8]: 21221
      0.10579 [     2]: 12122
      0.03687 [     4]: 12221
      0.00566 [     3]: 12212
      0.00461 [     6]: 21122
ROOT   3:  E=  -18786.7794059091 Eh  0.666 eV   5374.2 cm**-1
      0.84670 [     4]: 12221
      0.10579 [     6]: 21122
      0.03687 [     8]: 21221
      0.00566 [     7]: 21212
      0.00461 [     2]: 12122
ROOT   4:  E=  -18786.7783126234 Eh  0.696 eV   5614.1 cm**-1
      1.00000 [    11]: 22121
ROOT   5:  E=  -18786.7653770310 Eh  1.048 eV   8453.2 cm**-1
      0.79879 [    10]: 22112
      0.10039 [     5]: 20222
      0.10039 [     0]: 02222
ROOT   6:  E=  -18786.7569998555 Eh  1.276 eV  10291.7 cm**-1
      0.84115 [     9]: 22022
      0.05052 [     0]: 02222
      0.05052 [     5]: 20222
      0.04669 [    12]: 22202
      0.01112 [    14]: 22220
ROOT   7:  E=  -18786.7452687536 Eh  1.595 eV  12866.4 cm**-1
      0.79236 [     6]: 21122
      0.10379 [     4]: 12221
      0.08371 [     2]: 12122
      0.01097 [     8]: 21221
      0.00804 [     7]: 21212
ROOT   8:  E=  -18786.7452687536 Eh  1.595 eV  12866.4 cm**-1
      0.79236 [     2]: 12122
      0.10379 [     8]: 21221
      0.08371 [     6]: 21122
      0.01097 [     4]: 12221
      0.00804 [     3]: 12212
ROOT   9:  E=  -18786.7311664993 Eh  1.979 eV  15961.5 cm**-1
      0.92445 [     1]: 11222
      0.07359 [    13]: 22211
ROOT  10:  E=  -18786.7278081316 Eh  2.070 eV  16698.6 cm**-1
      0.39855 [     5]: 20222
      0.39855 [     0]: 02222
      0.20121 [    10]: 22112
ROOT  11:  E=  -18786.7238112697 Eh  2.179 eV  17575.8 cm**-1
      0.83416 [     3]: 12212
      0.15063 [     7]: 21212
      0.01190 [     2]: 12122
ROOT  12:  E=  -18786.7238112696 Eh  2.179 eV  17575.8 cm**-1
      0.83416 [     7]: 21212
      0.15063 [     3]: 12212
      0.01190 [     6]: 21122
ROOT  13:  E=  -18786.7228659235 Eh  2.205 eV  17783.3 cm**-1
      0.66027 [    12]: 22202
      0.16980 [     0]: 02222
      0.16980 [     5]: 20222
ROOT  14:  E=  -18786.6325306967 Eh  4.663 eV  37609.6 cm**-1
      0.26514 [    12]: 22202
      0.25187 [     0]: 02222
      0.25187 [     5]: 20222
      0.15862 [     9]: 22022
      0.07251 [    14]: 22220

                 <<<<<<<<<<<<<<<<<<INITIAL CI STATE CHECK>>>>>>>>>>>>>>>>>>

   E(CAS)=-18786.773702065 Eh DE=    0.000000e+00
   --- Energy gap subspaces: Ext-Act = 0.516   Act-Int = -0.453
   N(occ)=  1.60000 1.60000 1.60000 1.60000 1.60000
   ||g|| =     2.278141e+01 Max(G)=    9.941833e+00 Rot=238,0
   --- Orbital Update [SuperCI(PT)]
   --- Canonicalize Internal Space
   --- Canonicalize External Space
   --- SX_PT (Skipped TA=0 IT=0): ||X|| =    617.132635667 Max(X)(57,42) =    617.122140189 
   --- SFit(Active Orbitals)

MACRO-ITERATION   2: 
   --- Inactive Energy E0 = -18765.48380689 Eh
CI-ITERATION   0: 
-18787.015904193   0.000000000006 (    0.00)
-18787.015904168   0.000000000013
-18787.006394002   0.000000000027
-18786.983125219   0.000000000008
-18786.983125211   0.000000000012
-18786.963665509   0.000000000027
-18784.580457540   0.000000000023
-18784.554310536   0.000000000020
-18784.520624432   0.000000000010
-18784.520624414   0.000000000002
   CI-PROBLEM SOLVED
   DENSITIES MADE
CI-ITERATION   0: 
-18786.975991974   0.000000000020 (    0.00)
-18786.964271574   0.000000000007
-18786.964271529   0.000000000017
-18786.961464648   0.000000000016
-18786.941072720   0.000000000021
-18786.935530922   0.000000000017
-18786.935530915   0.000000000014
-18786.930316120   0.000000000019
-18786.928900627   0.000000000049
-18786.847960419   0.000000000018
-18784.516800127   0.000000000012
-18784.496162815   0.000000000017
-18784.496162800   0.000000000022
-18784.492251977   0.000000000052
-18782.030517193   0.000000000000
   CI-PROBLEM SOLVED
   DENSITIES MADE
   E(CAS)=-18785.987780306 Eh DE=    7.859218e-01
   --- Energy gap subspaces: Ext-Act = 0.314   Act-Int = -2.225
   N(occ)=  1.60000 1.60000 1.60000 1.60000 1.60000
   ||g|| =     1.140780e+01 Max(G)=   -6.009882e+00 Rot=57,5
   --- Orbital Update [SuperCI(PT)]
   --- Canonicalize Internal Space
   --- Canonicalize External Space
   --- SX_PT (Skipped TA=0 IT=0): ||X|| =      0.868805928 Max(X)(57,27) =      0.410988773 
   --- SFit(Active Orbitals)

MACRO-ITERATION   3: 
   --- Inactive Energy E0 = -18769.04123537 Eh
CI-ITERATION   0: 
-18787.375682369   0.000000000010 (    0.00)
-18787.375682363   0.000000000011
-18787.368825835   0.000000000020
-18787.350090752   0.000000000026
-18787.350090737   0.000000000021
-18787.323685777   0.000000000012
-18786.888690345   0.000000000009
-18786.878303069   0.000000000017
-18786.836093945   0.000000000009
-18786.836093923   0.000000000006
   CI-PROBLEM SOLVED
   DENSITIES MADE
CI-ITERATION   0: 
-18787.336915768   0.000000000012 (    0.00)
-18787.324742076   0.000000000016
-18787.324742073   0.000000000030
-18787.321632829   0.000000000042
-18787.306526916   0.000000000009
-18787.296050467   0.000000000019
-18787.296050455   0.000000000024
-18787.288963212   0.000000000024
-18787.288681063   0.000000000039
-18787.204701990   0.000000000022
-18786.837870382   0.000000000018
-18786.828484687   0.000000000045
-18786.806900522   0.000000000025
-18786.806900510   0.000000000012
-18786.300983633   0.000000000004
   CI-PROBLEM SOLVED
   DENSITIES MADE
   E(CAS)=-18787.131500174 Eh DE=   -1.143720e+00
   --- Energy gap subspaces: Ext-Act = 0.417   Act-Int = -0.515
   N(occ)=  1.60000 1.60000 1.60000 1.60000 1.60000
   ||g|| =     4.370032e+00 Max(G)=   -2.502011e+00 Rot=57,5
   --- Orbital Update [SuperCI(PT)]
   --- Canonicalize Internal Space
   --- Canonicalize External Space
   --- SX_PT (Skipped TA=0 IT=0): ||X|| =      0.591222279 Max(X)(57,41) =      0.450704811 
   --- SFit(Active Orbitals)

MACRO-ITERATION   4: 
   --- Inactive Energy E0 = -18769.52011748 Eh
CI-ITERATION   0: 
-18787.381117575   0.000000000011 (    0.00)
-18787.381117569   0.000000000004
-18787.374419953   0.000000000012
-18787.357390155   0.000000000008
-18787.357390134   0.000000000026
-18787.329316327   0.000000000038
-18787.136622438   0.000000000011
-18787.128057422   0.000000000020
-18787.085222247   0.000000000036
-18787.085222228   0.000000000013
   CI-PROBLEM SOLVED
   DENSITIES MADE
CI-ITERATION   0: 
-18787.339416538   0.000000000013 (    0.00)
-18787.329444330   0.000000000041
-18787.329444327   0.000000000037
-18787.325554219   0.000000000039
-18787.312766877   0.000000000024
-18787.301842251   0.000000000030
-18787.301842241   0.000000000031
-18787.295816548   0.000000000034
-18787.295638388   0.000000000025
-18787.211319648   0.000000000019
-18787.087430280   0.000000000027
-18787.081134040   0.000000000053
-18787.054775309   0.000000000020
-18787.054775300   0.000000000014
-18786.788156074   0.000000000001
   CI-PROBLEM SOLVED
   DENSITIES MADE
   E(CAS)=-18787.234439014 Eh DE=   -1.029388e-01
   --- Energy gap subspaces: Ext-Act = 0.415   Act-Int = -0.254
   N(occ)=  1.60000 1.60000 1.60000 1.60000 1.60000
   ||g|| =     2.949801e+00 Max(G)=   -1.679062e+00 Rot=57,5
   --- Orbital Update [SuperCI(PT)]
   --- Canonicalize Internal Space
   --- Canonicalize External Space
   --- SX_PT (Skipped TA=0 IT=0): ||X|| =      0.436686069 Max(X)(57,42) =      0.333078588 
   --- SFit(Active Orbitals)

MACRO-ITERATION   5: 
   --- Inactive Energy E0 = -18769.02933275 Eh
CI-ITERATION   0: 
-18787.382653431   0.000000000022 (    0.00)
-18787.382653428   0.000000000018
-18787.375888980   0.000000000016
-18787.359794278   0.000000000029
-18787.359794268   0.000000000022
-18787.330710766   0.000000000013
-18787.195661799   0.000000000013
-18787.185465765   0.000000000029
-18787.138747209   0.000000000021
-18787.138747193   0.000000000009
   CI-PROBLEM SOLVED
   DENSITIES MADE
CI-ITERATION   0: 
-18787.340271440   0.000000000013 (    0.00)
-18787.330751695   0.000000000019
-18787.330751693   0.000000000019
-18787.326408954   0.000000000026
-18787.314293643   0.000000000020
-18787.303230165   0.000000000038
-18787.303230157   0.000000000031
-18787.297711193   0.000000000025
-18787.297602663   0.000000000023
-18787.214513688   0.000000000020
-18787.141986092   0.000000000033
-18787.131333110   0.000000000034
-18787.105936766   0.000000000028
-18787.105936758   0.000000000028
-18786.896949019   0.000000000004
   CI-PROBLEM SOLVED
   DENSITIES MADE
   E(CAS)=-18787.257202756 Eh DE=   -2.276374e-02
   --- Energy gap subspaces: Ext-Act = 0.421   Act-Int = -0.236
   N(occ)=  1.60000 1.60000 1.60000 1.60000 1.60000
   ||g|| =     2.738130e+00 Max(G)=   -1.554292e+00 Rot=57,5
   --- Orbital Update [SuperCI(PT)]
   --- Canonicalize Internal Space
   --- Canonicalize External Space
   --- SX_PT (Skipped TA=0 IT=0): ||X|| =      0.277344333 Max(X)(57,42) =      0.166989068 
   --- SFit(Active Orbitals)

MACRO-ITERATION   6: 
   --- Inactive Energy E0 = -18768.57250337 Eh
CI-ITERATION   0: 
-18787.386843375   0.000000000019 (    0.00)
-18787.386843373   0.000000000012
-18787.380101963   0.000000000014
-18787.366729623   0.000000000005
-18787.366729618   0.000000000018
-18787.334512975   0.000000000014
-18787.285094665   0.000000000016
-18787.275071794   0.000000000026
-18787.223010849   0.000000000008
-18787.223010845   0.000000000012
   CI-PROBLEM SOLVED
   DENSITIES MADE
CI-ITERATION   0: 
-18787.341506675   0.000000000020 (    0.00)
-18787.334202770   0.000000000051
-18787.334202766   0.000000000027
-18787.327897828   0.000000000031
-18787.318414614   0.000000000023
-18787.307018275   0.000000000019
-18787.307018270   0.000000000015
-18787.303630796   0.000000000022
-18787.303451410   0.000000000022
-18787.224736953   0.000000000018
-18787.224144349   0.000000000027
-18787.210724884   0.000000000042
-18787.189598104   0.000000000022
-18787.189598101   0.000000000035
-18787.052245280   0.000000000004
   CI-PROBLEM SOLVED
   DENSITIES MADE
   E(CAS)=-18787.293677156 Eh DE=   -3.647440e-02
   --- Energy gap subspaces: Ext-Act = 0.421   Act-Int = -0.175
   N(occ)=  1.60000 1.60000 1.60000 1.60000 1.60000
   ||g|| =     2.184504e+00 Max(G)=   -1.240440e+00 Rot=57,5
   --- Orbital Update [SuperCI(PT)]
   --- Canonicalize Internal Space
   --- Canonicalize External Space
   --- SX_PT (Skipped TA=0 IT=0): ||X|| =      0.126402797 Max(X)(57,44) =      0.058047844 
   --- SFit(Active Orbitals)

MACRO-ITERATION   7: 
   --- Inactive Energy E0 = -18768.80306707 Eh
CI-ITERATION   0: 
-18787.390814451   0.000000000011 (    0.00)
-18787.390814447   0.000000000025
-18787.383208550   0.000000000023
-18787.377027370   0.000000000021
-18787.377027360   0.000000000023
-18787.376430674   0.000000000016
-18787.366229121   0.000000000015
-18787.337373352   0.000000000008
-18787.307496885   0.000000000009
-18787.307496876   0.000000000015
   CI-PROBLEM SOLVED
   DENSITIES MADE
CI-ITERATION   0: 
-18787.345909706   0.000000000018 (    0.00)
-18787.337465612   0.000000000030
-18787.337465610   0.000000000033
-18787.329721908   0.000000000048
-18787.328510885   0.000000000041
-18787.321923061   0.000000000015
-18787.320698147   0.000000000023
-18787.310047962   0.000000000014
-18787.310047962   0.000000000027
-18787.296878781   0.000000000049
-18787.291993975   0.000000000026
-18787.280263493   0.000000000045
-18787.280263488   0.000000000060
-18787.275004916   0.000000000011
-18787.181364653   0.000000000015
   CI-PROBLEM SOLVED
   DENSITIES MADE
   E(CAS)=-18787.332281292 Eh DE=   -3.860414e-02
   --- Energy gap subspaces: Ext-Act = 0.427   Act-Int = -0.081
   N(occ)=  1.60000 1.60000 1.60000 1.60000 1.60000
   ||g|| =     3.131023e-01 Max(G)=   -1.145288e-01 Rot=57,5
   --- Orbital Update [SuperCI(PT)]
   --- Canonicalize Internal Space
   --- Canonicalize External Space
   --- SX_PT (Skipped TA=0 IT=0): ||X|| =      0.116495080 Max(X)(57,50) =     -0.095512448 
   --- SFit(Active Orbitals)

MACRO-ITERATION   8: 
   --- Inactive Energy E0 = -18768.66327462 Eh
CI-ITERATION   0: 
-18787.392252428   0.000000000015 (    0.00)
-18787.392252426   0.000000000021
-18787.391466648   0.000000000022
-18787.383840301   0.000000000021
-18787.379848683   0.000000000023
-18787.379848681   0.000000000013
-18787.379644387   0.000000000010
-18787.338108683   0.000000000010
-18787.317670639   0.000000000008
-18787.317670633   0.000000000016
   CI-PROBLEM SOLVED
   DENSITIES MADE
CI-ITERATION   0: 
-18787.347750281   0.000000000020 (    0.00)
-18787.343926038   0.000000000016
-18787.338093175   0.000000000020
-18787.338093171   0.000000000015
-18787.333115388   0.000000000048
-18787.330862567   0.000000000010
-18787.322411184   0.000000000015
-18787.310675963   0.000000000021
-18787.310675962   0.000000000032
-18787.299378794   0.000000000023
-18787.296411575   0.000000000019
-18787.291044239   0.000000000023
-18787.291044237   0.000000000018
-18787.289244800   0.000000000009
-18787.187748268   0.000000000035
   CI-PROBLEM SOLVED
   DENSITIES MADE
   E(CAS)=-18787.337979363 Eh DE=   -5.698071e-03
   --- Energy gap subspaces: Ext-Act = 0.436   Act-Int = -0.100
   N(occ)=  1.60000 1.60000 1.60000 1.60000 1.60000
   ||g|| =     1.922489e-01 Max(G)=    5.630763e-02 Rot=67,5
   --- Orbital Update [SuperCI(PT)]
   --- Canonicalize Internal Space
   --- Canonicalize External Space
   --- SX_PT (Skipped TA=0 IT=0): ||X|| =      0.034465697 Max(X)(57,42) =     -0.020451474 
   --- SFit(Active Orbitals)

MACRO-ITERATION   9: 
   --- Inactive Energy E0 = -18768.74429867 Eh
CI-ITERATION   0: 
-18787.392199586   0.000000000015 (    0.00)
-18787.392199584   0.000000000021
-18787.389301547   0.000000000020
-18787.383834988   0.000000000031
-18787.379365074   0.000000000024
-18787.379365072   0.000000000014
-18787.377429843   0.000000000048
-18787.338171087   0.000000000011
-18787.316680469   0.000000000017
-18787.316680464   0.000000000015
   CI-PROBLEM SOLVED
   DENSITIES MADE
CI-ITERATION   0: 
-18787.347080814   0.000000000013 (    0.00)
-18787.344423669   0.000000000037
-18787.337899728   0.000000000017
-18787.337899726   0.000000000044
-18787.334153135   0.000000000018
-18787.330841017   0.000000000017
-18787.322009700   0.000000000036
-18787.310742293   0.000000000023
-18787.310742292   0.000000000017
-18787.299009661   0.000000000013
-18787.296026983   0.000000000019
-18787.289174725   0.000000000017
-18787.289174724   0.000000000021
-18787.286821983   0.000000000015
-18787.187404480   0.000000000017
   CI-PROBLEM SOLVED
   DENSITIES MADE
   E(CAS)=-18787.337374882 Eh DE=    6.044801e-04
   --- Energy gap subspaces: Ext-Act = 0.436   Act-Int = -0.098
   N(occ)=  1.60000 1.60000 1.60000 1.60000 1.60000
   ||g|| =     2.668365e-01 Max(G)=    1.252093e-01 Rot=57,5
   --- Orbital Update [SuperCI(PT)]
   --- Canonicalize Internal Space
   --- Canonicalize External Space
   --- SX_PT (Skipped TA=0 IT=0): ||X|| =      0.034844258 Max(X)(57,41) =      0.023830582 
   --- SFit(Active Orbitals)

MACRO-ITERATION  10: 
   --- Inactive Energy E0 = -18768.80905622 Eh
CI-ITERATION   0: 
-18787.392413272   0.000000000014 (    0.00)
-18787.392413270   0.000000000012
-18787.390213505   0.000000000009
-18787.384117886   0.000000000016
-18787.379932506   0.000000000014
-18787.379932505   0.000000000018
-18787.378621123   0.000000000023
-18787.338456298   0.000000000029
-18787.317895799   0.000000000012
-18787.317895796   0.000000000009
   CI-PROBLEM SOLVED
   DENSITIES MADE
CI-ITERATION   0: 
-18787.347171551   0.000000000016 (    0.00)
-18787.345050114   0.000000000027
-18787.338145297   0.000000000036
-18787.338145297   0.000000000052
-18787.334982442   0.000000000036
-18787.330922406   0.000000000058
-18787.322368654   0.000000000015
-18787.311057567   0.000000000026
-18787.311057566   0.000000000026
-18787.299620319   0.000000000045
-18787.296791407   0.000000000042
-18787.290884826   0.000000000018
-18787.290884825   0.000000000013
-18787.288892083   0.000000000015
-18787.188613589   0.000000000020
   CI-PROBLEM SOLVED
   DENSITIES MADE
   E(CAS)=-18787.338080862 Eh DE=   -7.059793e-04
   --- Energy gap subspaces: Ext-Act = 0.432   Act-Int = -0.088
   N(occ)=  1.60000 1.60000 1.60000 1.60000 1.60000
   ||g|| =     5.801897e-02 Max(G)=    2.251623e-02 Rot=57,22
   --- Orbital Update [SuperCI(PT)]
   --- Canonicalize Internal Space
   --- Canonicalize External Space
   --- SX_PT (Skipped TA=0 IT=0): ||X|| =      0.031983937 Max(X)(57,41) =      0.022638060 
   --- SFit(Active Orbitals)

MACRO-ITERATION  11: 
   --- Inactive Energy E0 = -18768.77511910 Eh
CI-ITERATION   0: 
-18787.392488198   0.000000000023 (    0.00)
-18787.392488197   0.000000000012
-18787.391703951   0.000000000010
-18787.384162241   0.000000000022
-18787.380349817   0.000000000015
-18787.380349817   0.000000000014
-18787.380141282   0.000000000027
-18787.338480337   0.000000000013
-18787.318687753   0.000000000020
-18787.318687752   0.000000000017
   CI-PROBLEM SOLVED
   DENSITIES MADE
CI-ITERATION   0: 
-18787.347253595   0.000000000020 (    0.00)
-18787.345548177   0.000000000026
-18787.338204062   0.000000000028
-18787.338204062   0.000000000020
-18787.335246723   0.000000000022
-18787.330828372   0.000000000029
-18787.322566980   0.000000000015
-18787.311117222   0.000000000024
-18787.311117222   0.000000000033
-18787.299933112   0.000000000018
-18787.297154508   0.000000000019
-18787.291943309   0.000000000031
-18787.291943309   0.000000000032
-18787.290278463   0.000000000030
-18787.188761935   0.000000000030
   CI-PROBLEM SOLVED
   DENSITIES MADE
   E(CAS)=-18787.338547001 Eh DE=   -4.661396e-04
   --- Energy gap subspaces: Ext-Act = 0.432   Act-Int = -0.086
   N(occ)=  1.60000 1.60000 1.60000 1.60000 1.60000
   ||g|| =     1.745679e-02 Max(G)=    5.681067e-03 Rot=59,5
   --- Orbital Update [SuperCI(PT)]
   --- Canonicalize Internal Space
   --- Canonicalize External Space
   --- SX_PT (Skipped TA=0 IT=0): ||X|| =      0.007138411 Max(X)(57,42) =     -0.005429458 
   --- SFit(Active Orbitals)

MACRO-ITERATION  12: 
   --- Inactive Energy E0 = -18768.76163478 Eh
CI-ITERATION   0: 
-18787.392497149   0.000000000015 (    0.00)
-18787.392497149   0.000000000011
-18787.391861850   0.000000000006
-18787.384159163   0.000000000014
-18787.380378471   0.000000000013
-18787.380378471   0.000000000020
-18787.380279197   0.000000000010
-18787.338472693   0.000000000021
-18787.318719866   0.000000000009
-18787.318719865   0.000000000011
   CI-PROBLEM SOLVED
   DENSITIES MADE
CI-ITERATION   0: 
-18787.347278420   0.000000000014 (    0.00)
-18787.345533636   0.000000000022
-18787.338212567   0.000000000021
-18787.338212566   0.000000000021
-18787.335162823   0.000000000032
-18787.330804341   0.000000000023
-18787.322569090   0.000000000014
-18787.311109322   0.000000000029
-18787.311109322   0.000000000026
-18787.299961821   0.000000000039
-18787.297170227   0.000000000024
-18787.291993339   0.000000000027
-18787.291993338   0.000000000016
-18787.290334503   0.000000000021
-18787.188695812   0.000000000013
   CI-PROBLEM SOLVED
   DENSITIES MADE
   E(CAS)=-18787.338569564 Eh DE=   -2.256224e-05
   --- Energy gap subspaces: Ext-Act = 0.432   Act-Int = -0.087
   N(occ)=  1.60000 1.60000 1.60000 1.60000 1.60000
   ||g|| =     6.612336e-03 Max(G)=   -3.060122e-03 Rot=57,5
   --- Orbital Update [SuperCI(PT)]
   --- Canonicalize Internal Space
   --- Canonicalize External Space
   --- SX_PT (Skipped TA=0 IT=0): ||X|| =      0.000663105 Max(X)(57,38) =      0.000375384 
   --- SFit(Active Orbitals)

MACRO-ITERATION  13: 
   --- Inactive Energy E0 = -18768.76366061 Eh
CI-ITERATION   0: 
-18787.392491875   0.000000000010 (    0.00)
-18787.392491875   0.000000000010
-18787.391852518   0.000000000011
-18787.384152819   0.000000000015
-18787.380370932   0.000000000013
-18787.380370931   0.000000000014
-18787.380266880   0.000000000012
-18787.338469698   0.000000000017
-18787.318732656   0.000000000029
-18787.318732656   0.000000000027
   CI-PROBLEM SOLVED
   DENSITIES MADE
CI-ITERATION   0: 
-18787.347253149   0.000000000016 (    0.00)
-18787.345611632   0.000000000033
-18787.338201814   0.000000000037
-18787.338201813   0.000000000020
-18787.335244270   0.000000000027
-18787.330794511   0.000000000011
-18787.322543786   0.000000000014
-18787.311104726   0.000000000025
-18787.311104726   0.000000000035
-18787.299957459   0.000000000016
-18787.297168919   0.000000000019
-18787.291987174   0.000000000024
-18787.291987174   0.000000000017
-18787.290330628   0.000000000016
-18787.188707756   0.000000000018
   CI-PROBLEM SOLVED
   DENSITIES MADE
   E(CAS)=-18787.338569959 Eh DE=   -3.952700e-07
   --- Energy gap subspaces: Ext-Act = 0.432   Act-Int = -0.087
   N(occ)=  1.60000 1.60000 1.60000 1.60000 1.60000
   ||g|| =     5.132396e-03 Max(G)=    2.305975e-03 Rot=57,5
   --- Orbital Update [SuperCI(PT)]
   --- Canonicalize Internal Space
   --- Canonicalize External Space
   --- SX_PT (Skipped TA=0 IT=0): ||X|| =      0.000736633 Max(X)(57,42) =     -0.000641691 
Warning: badly conditioned DIIS matrix, 1 vectors out of 13 destroyed
Warning: badly conditioned DIIS matrix, 1 vectors out of 12 destroyed
   --- SFit(Active Orbitals)

MACRO-ITERATION  14: 
   --- Inactive Energy E0 = -18768.76184355 Eh
CI-ITERATION   0: 
-18787.392490939   0.000000000028 (    0.00)
-18787.392490939   0.000000000020
-18787.391859350   0.000000000032
-18787.384150642   0.000000000019
-18787.380369599   0.000000000009
-18787.380369599   0.000000000015
-18787.380270779   0.000000000044
-18787.338468143   0.000000000011
-18787.318734917   0.000000000005
-18787.318734917   0.000000000015
   CI-PROBLEM SOLVED
   DENSITIES MADE
CI-ITERATION   0: 
-18787.347257481   0.000000000012 (    0.00)
-18787.345609310   0.000000000018
-18787.338203063   0.000000000029
-18787.338203063   0.000000000018
-18787.335233522   0.000000000024
-18787.330791983   0.000000000023
-18787.322538111   0.000000000011
-18787.311101917   0.000000000018
-18787.311101917   0.000000000024
-18787.299960226   0.000000000025
-18787.297169138   0.000000000038
-18787.291992614   0.000000000013
-18787.291992614   0.000000000013
-18787.290337012   0.000000000010
-18787.188706906   0.000000000032
   CI-PROBLEM SOLVED
   DENSITIES MADE
   E(CAS)=-18787.338570286 Eh DE=   -3.271562e-07
   --- Energy gap subspaces: Ext-Act = 0.432   Act-Int = -0.087
   N(occ)=  1.60000 1.60000 1.60000 1.60000 1.60000
   ||g|| =     1.397410e-03 Max(G)=    2.076068e-04 Rot=208,38
   --- Orbital Update [SuperCI(PT)]
   --- Canonicalize Internal Space
   --- Canonicalize External Space
   --- SX_PT (Skipped TA=0 IT=0): ||X|| =      0.000259877 Max(X)(57,42) =     -0.000212525 
Warning: badly conditioned DIIS matrix, 1 vectors out of 12 destroyed
Warning: badly conditioned DIIS matrix, 1 vectors out of 11 destroyed
Warning: badly conditioned DIIS matrix, 1 vectors out of 10 destroyed
   --- SFit(Active Orbitals)

MACRO-ITERATION  15: 
   --- Inactive Energy E0 = -18768.76196254 Eh
CI-ITERATION   0: 
-18787.392489411   0.000000000022 (    0.00)
-18787.392489411   0.000000000016
-18787.391859751   0.000000000012
-18787.384150375   0.000000000017
-18787.380371631   0.000000000025
-18787.380371631   0.000000000017
-18787.380274508   0.000000000028
-18787.338467905   0.000000000013
-18787.318736192   0.000000000013
-18787.318736192   0.000000000009
   CI-PROBLEM SOLVED
   DENSITIES MADE
CI-ITERATION   0: 
-18787.347254189   0.000000000016 (    0.00)
-18787.345605873   0.000000000033
-18787.338202519   0.000000000046
-18787.338202518   0.000000000048
-18787.335230707   0.000000000014
-18787.330789325   0.000000000033
-18787.322537745   0.000000000014
-18787.311101827   0.000000000019
-18787.311101827   0.000000000025
-18787.299961878   0.000000000030
-18787.297170319   0.000000000012
-18787.291994084   0.000000000028
-18787.291994084   0.000000000015
-18787.290338313   0.000000000014
-18787.188704049   0.000000000020
   CI-PROBLEM SOLVED
   DENSITIES MADE
   E(CAS)=-18787.338570325 Eh DE=   -3.863897e-08
   --- Energy gap subspaces: Ext-Act = 0.432   Act-Int = -0.087
   N(occ)=  1.60000 1.60000 1.60000 1.60000 1.60000
   ||g|| =     2.826862e-04 Max(G)=   -8.207701e-05 Rot=59,5
                     ---- THE CAS-SCF ENERGY   HAS CONVERGED ----
                            --- FINALIZING ORBITALS ---
                    ---- DOING ONE FINAL ITERATION FOR PRINTING ----
   --- d-orbitals (depends on the molecular axis frame)
 L-Center:  4 Pt [0.000, 0.000, 0.000] 
   --- The active space contains 5 d Orbitals : OK
 Setting 54 active MO to AO dz2     (203)
 Setting 55 active MO to AO dxz     (204)
 Setting 56 active MO to AO dyz     (205)
 Setting 57 active MO to AO dx2y2   (206)
 Setting 58 active MO to AO dxy     (207)
   --- Canonicalize Internal Space
   --- Canonicalize External Space

MACRO-ITERATION  16: 
   --- Inactive Energy E0 = -18768.76196254 Eh
   --- All densities will be recomputed
CI-ITERATION   0: 
-18787.392489407   0.000000000026 (    0.00)
-18787.392489407   0.000000000016
-18787.391859747   0.000000000014
-18787.384150371   0.000000000009
-18787.380371627   0.000000000020
-18787.380371627   0.000000000015
-18787.380274504   0.000000000019
-18787.338467900   0.000000000014
-18787.318736188   0.000000000021
-18787.318736188   0.000000000008
   CI-PROBLEM SOLVED
   DENSITIES MADE
CI-ITERATION   0: 
-18787.347254185   0.000000000009 (    0.00)
-18787.345605869   0.000000000024
-18787.338202515   0.000000000023
-18787.338202514   0.000000000014
-18787.335230703   0.000000000013
-18787.330789321   0.000000000011
-18787.322537741   0.000000000008
-18787.311101823   0.000000000041
-18787.311101823   0.000000000030
-18787.299961874   0.000000000021
-18787.297170315   0.000000000033
-18787.291994080   0.000000000016
-18787.291994080   0.000000000043
-18787.290338309   0.000000000015
-18787.188704044   0.000000000009
   CI-PROBLEM SOLVED
   DENSITIES MADE
   E(CAS)=-18787.338570321 Eh DE=    4.096364e-09
   --- Energy gap subspaces: Ext-Act = 0.423   Act-Int = -0.101
   N(occ)=  1.60000 1.60000 1.60000 1.60000 1.60000
   ||g|| =     2.826815e-04 Max(G)=   -7.694152e-05 Rot=59,5
--------------
CASSCF RESULTS
--------------

Final CASSCF energy       : -18787.338570321 Eh -511229.4729 eV

----------------
ORBITAL ENERGIES
----------------

  NO   OCC          E(Eh)            E(eV) 
   0   2.0000   -2888.984121    -78613.2546 
   1   2.0000    -513.589619    -13975.4840 
   2   2.0000    -447.463711    -12176.1066 
   3   2.0000    -447.462812    -12176.0821 
   4   2.0000    -447.462812    -12176.0821 
   5   2.0000    -123.229747     -3353.2519 
   6   2.0000    -103.481314     -2815.8697 
   7   2.0000    -103.478441     -2815.7915 
   8   2.0000    -103.478441     -2815.7915 
   9   2.0000     -80.981784     -2203.6264 
  10   2.0000     -80.981227     -2203.6112 
  11   2.0000     -80.981227     -2203.6112 
  12   2.0000     -80.979481     -2203.5637 
  13   2.0000     -80.979287     -2203.5584 
  14   2.0000     -27.824310      -757.1380 
  15   2.0000     -25.859666      -703.6773 
  16   2.0000     -25.859664      -703.6772 
  17   2.0000     -25.859663      -703.6772 
  18   2.0000     -25.859663      -703.6772 
  19   2.0000     -21.178677      -576.3011 
  20   2.0000     -21.173893      -576.1709 
  21   2.0000     -21.173893      -576.1709 
  22   2.0000     -12.735051      -346.5383 
  23   2.0000     -12.733983      -346.5093 
  24   2.0000     -12.733983      -346.5093 
  25   2.0000     -12.730613      -346.4176 
  26   2.0000     -12.730293      -346.4089 
  27   2.0000      -4.401685      -119.7759 
  28   2.0000      -3.359821       -91.4254 
  29   2.0000      -3.359157       -91.4073 
  30   2.0000      -3.359157       -91.4073 
  31   2.0000      -3.357239       -91.3551 
  32   2.0000      -3.357101       -91.3514 
  33   2.0000      -3.353908       -91.2645 
  34   2.0000      -3.353908       -91.2645 
  35   2.0000      -2.555492       -69.5385 
  36   2.0000      -2.549489       -69.3751 
  37   2.0000      -2.549489       -69.3751 
  38   2.0000      -1.080957       -29.4143 
  39   2.0000      -1.080750       -29.4087 
  40   2.0000      -1.080750       -29.4087 
  41   2.0000      -1.080689       -29.4070 
  42   2.0000      -0.193477        -5.2648 
  43   2.0000      -0.191705        -5.2166 
  44   2.0000      -0.189177        -5.1478 
  45   2.0000      -0.189177        -5.1478 
  46   2.0000      -0.188699        -5.1348 
  47   2.0000      -0.188439        -5.1277 
  48   2.0000      -0.187775        -5.1096 
  49   2.0000      -0.187775        -5.1096 
  50   2.0000      -0.186638        -5.0787 
  51   2.0000      -0.184909        -5.0316 
  52   2.0000      -0.171494        -4.6666 
  53   2.0000      -0.171494        -4.6666 
  54   1.6000      -0.272173        -7.4062 
  55   1.6000      -0.271225        -7.3804 
  56   1.6000      -0.271225        -7.3804 
  57   1.6000      -0.238754        -6.4968 
  58   1.6000      -0.259976        -7.0743 
  59   0.0000       0.184289         5.0148 
  60   0.0000       0.298852         8.1322 
  61   0.0000       0.394537        10.7359 
  62   0.0000       0.394537        10.7359 
  63   0.0000       0.447320        12.1722 
  64   0.0000       0.487588        13.2679 
  65   0.0000       0.487588        13.2679 
  66   0.0000       0.550331        14.9753 
  67   0.0000       0.595258        16.1978 
  68   0.0000       0.605192        16.4681 
  69   0.0000       0.611264        16.6333 
  70   0.0000       0.651357        17.7243 
  71   0.0000       0.651357        17.7243 
  72   0.0000       1.031172        28.0596 
  73   0.0000       1.040109        28.3028 
  74   0.0000       1.040109        28.3028 
  75   0.0000       1.046843        28.4860 
  76   0.0000       1.049600        28.5611 
  77   0.0000       1.087906        29.6034 
  78   0.0000       1.087906        29.6034 
  79   0.0000       1.088754        29.6265 
  80   0.0000       1.107787        30.1444 
  81   0.0000       1.114592        30.3296 
  82   0.0000       1.115761        30.3614 
  83   0.0000       1.117821        30.4174 
  84   0.0000       1.117821        30.4174 
  85   0.0000       1.149414        31.2772 
  86   0.0000       1.149414        31.2772 
  87   0.0000       1.154716        31.4214 
  88   0.0000       1.154716        31.4214 
  89   0.0000       1.205979        32.8164 
  90   0.0000       1.246182        33.9103 
  91   0.0000       1.270780        34.5797 
  92   0.0000       1.276949        34.7476 
  93   0.0000       1.290333        35.1117 
  94   0.0000       1.290333        35.1117 
  95   0.0000       1.293482        35.1974 
  96   0.0000       1.418439        38.5977 
  97   0.0000       1.503952        40.9246 
  98   0.0000       1.514656        41.2159 
  99   0.0000       1.514656        41.2159 
 100   0.0000       1.586880        43.1812 
 101   0.0000       1.821033        49.5528 
 102   0.0000       1.899178        51.6793 
 103   0.0000       1.899178        51.6793 
 104   0.0000       2.686024        73.0904 
 105   0.0000       2.688375        73.1544 
 106   0.0000       2.692784        73.2744 
 107   0.0000       2.692784        73.2744 
 108   0.0000       2.693080        73.2824 
 109   0.0000       2.693139        73.2840 
 110   0.0000       2.693139        73.2840 
 111   0.0000       2.694479        73.3205 
 112   0.0000       2.694512        73.3214 
 113   0.0000       2.694525        73.3217 
 114   0.0000       2.694525        73.3217 
 115   0.0000       2.698392        73.4270 
 116   0.0000       2.698522        73.4305 
 117   0.0000       2.701133        73.5016 
 118   0.0000       2.701133        73.5016 
 119   0.0000       2.720112        74.0180 
 120   0.0000       2.723070        74.0985 
 121   0.0000       2.737319        74.4862 
 122   0.0000       2.759185        75.0812 
 123   0.0000       2.759185        75.0812 
 124   0.0000       3.216146        87.5158 
 125   0.0000       3.221075        87.6499 
 126   0.0000       3.224418        87.7409 
 127   0.0000       3.224418        87.7409 
 128   0.0000       3.231062        87.9217 
 129   0.0000       3.337664        90.8224 
 130   0.0000       3.337664        90.8224 
 131   0.0000       3.515783        95.6693 
 132   0.0000       3.515783        95.6693 
 133   0.0000       3.533140        96.1416 
 134   0.0000       3.565260        97.0156 
 135   0.0000       3.704419       100.8024 
 136   0.0000       4.051630       110.2505 
 137   0.0000       4.060116       110.4814 
 138   0.0000       4.066509       110.6553 
 139   0.0000       4.066509       110.6553 
 140   0.0000       4.075905       110.9110 
 141   0.0000       4.086509       111.1996 
 142   0.0000       4.089347       111.2768 
 143   0.0000       4.089348       111.2768 
 144   0.0000       4.092362       111.3588 
 145   0.0000       4.092439       111.3609 
 146   0.0000       4.092439       111.3609 
 147   0.0000       4.158298       113.1530 
 148   0.0000       4.428199       120.4974 
 149   0.0000       4.428199       120.4974 
 150   0.0000       4.492670       122.2518 
 151   0.0000       4.509113       122.6992 
 152   0.0000       5.114874       139.1828 
 153   0.0000       7.138400       194.2457 
 154   0.0000       7.207193       196.1177 
 155   0.0000       7.207193       196.1177 
 156   0.0000       7.836865       213.2519 
 157   0.0000       7.837385       213.2661 
 158   0.0000       7.837385       213.2661 
 159   0.0000       7.837609       213.2722 
 160   0.0000       7.837723       213.2753 
 161   0.0000       7.837896       213.2800 
 162   0.0000       7.837896       213.2800 
 163   0.0000       7.839132       213.3136 
 164   0.0000       7.840644       213.3548 
 165   0.0000       7.840966       213.3635 
 166   0.0000       7.840966       213.3635 
 167   0.0000       7.841076       213.3665 
 168   0.0000       7.841087       213.3668 
 169   0.0000       7.841170       213.3691 
 170   0.0000       7.841170       213.3691 
 171   0.0000       7.841210       213.3702 
 172   0.0000       7.842315       213.4002 
 173   0.0000       7.843149       213.4229 
 174   0.0000       7.843606       213.4354 
 175   0.0000       7.843606       213.4354 
 176   0.0000       7.847317       213.5364 
 177   0.0000       7.847318       213.5364 
 178   0.0000       7.847318       213.5364 
 179   0.0000       7.847318       213.5364 
 180   0.0000       7.847318       213.5364 
 181   0.0000       7.847320       213.5364 
 182   0.0000       7.847320       213.5364 
 183   0.0000       7.847320       213.5364 
 184   0.0000       9.304017       253.1752 
 185   0.0000       9.304636       253.1920 
 186   0.0000       9.308083       253.2858 
 187   0.0000       9.308260       253.2906 
 188   0.0000       9.308260       253.2906 
 189   0.0000       9.308515       253.2976 
 190   0.0000       9.308515       253.2976 
 191   0.0000       9.309262       253.3179 
 192   0.0000       9.309295       253.3188 
 193   0.0000       9.309311       253.3192 
 194   0.0000       9.309311       253.3192 
 195   0.0000       9.311497       253.3787 
 196   0.0000       9.311574       253.3808 
 197   0.0000       9.312991       253.4194 
 198   0.0000       9.312991       253.4194 
 199   0.0000       9.325191       253.7513 
 200   0.0000       9.347037       254.3458 
 201   0.0000       9.356458       254.6022 
 202   0.0000       9.356458       254.6022 
 203   0.0000       9.362106       254.7559 
 204   0.0000      15.588774       424.1921 
 205   0.0000      15.588774       424.1921 
 206   0.0000      15.598291       424.4511 
 207   0.0000      15.609039       424.7435 
 208   0.0000      15.667956       426.3467 
 209   0.0000      19.759981       537.6964 
 210   0.0000      19.774282       538.0856 
 211   0.0000      19.774282       538.0856 
 212   0.0000      19.851171       540.1778 
 213   0.0000      19.891285       541.2694 
 214   0.0000      37.356410      1016.5196 
 215   0.0000      37.407196      1017.9016 
 216   0.0000      37.407196      1017.9016 
 217   0.0000      87.893742      2391.7103 
 218   0.0000      88.902411      2419.1576 
 219   0.0000      88.902411      2419.1576 
 220   0.0000      88.907423      2419.2940 
 221   0.0000      88.911812      2419.4134 
 222   0.0000      88.938312      2420.1345 
 223   0.0000     102.918374      2800.5513 
 224   0.0000     102.918375      2800.5513 
 225   0.0000     102.985213      2802.3701 
 226   0.0000     103.041034      2803.8891 
 227   0.0000     211.238148      5748.0822 
 228   0.0000     211.270371      5748.9591 
 229   0.0000     211.270371      5748.9591 
 230   0.0000     372.735230     10142.6412 
 231   0.0000    1015.882721     27643.5742 
 232   0.0000    1015.903551     27644.1410 
 233   0.0000    1015.903551     27644.1410 
 234   0.0000    1294.111780     35214.5718 
 235   0.0000    3641.791463     99098.1838 
 236   0.0000    8658.595943    235612.3739 
 237   0.0000   17937.604548    488107.0346 
 238   0.0000   40148.294265   1092490.6281 


---------------------------------------------
CAS-SCF STATES FOR BLOCK  0 MULT= 3 NROOTS=10
---------------------------------------------

ROOT   0:  E=  -18787.3924894074 Eh
      0.84970 [     5]: 21212
      0.10150 [     8]: 22121
      0.04182 [     0]: 11222
      0.00597 [     7]: 22112
ROOT   1:  E=  -18787.3924894072 Eh  0.000 eV      0.0 cm**-1
      0.84970 [     7]: 22112
      0.10150 [     6]: 21221
      0.04182 [     1]: 12122
      0.00597 [     5]: 21212
ROOT   2:  E=  -18787.3918597467 Eh  0.017 eV    138.2 cm**-1
      1.00000 [     2]: 12212
ROOT   3:  E=  -18787.3841503714 Eh  0.227 eV   1830.2 cm**-1
      0.50060 [     9]: 22211
      0.49940 [     4]: 21122
ROOT   4:  E=  -18787.3803716272 Eh  0.330 eV   2659.5 cm**-1
      0.69954 [     8]: 22121
      0.20297 [     0]: 11222
      0.04601 [     6]: 21221
      0.03577 [     5]: 21212
      0.01335 [     1]: 12122
ROOT   5:  E=  -18787.3803716272 Eh  0.330 eV   2659.5 cm**-1
      0.69954 [     6]: 21221
      0.20297 [     1]: 12122
      0.04601 [     8]: 22121
      0.03577 [     7]: 22112
      0.01335 [     0]: 11222
ROOT   6:  E=  -18787.3802745038 Eh  0.332 eV   2680.9 cm**-1
      1.00000 [     3]: 12221
ROOT   7:  E=  -18787.3384679004 Eh  1.470 eV  11856.4 cm**-1
      0.50060 [     4]: 21122
      0.49940 [     9]: 22211
ROOT   8:  E=  -18787.3187361881 Eh  2.007 eV  16187.0 cm**-1
      0.74132 [     1]: 12122
      0.15218 [     6]: 21221
      0.10617 [     7]: 22112
ROOT   9:  E=  -18787.3187361880 Eh  2.007 eV  16187.0 cm**-1
      0.74132 [     0]: 11222
      0.15218 [     8]: 22121
      0.10617 [     5]: 21212


---------------------------------------------
CAS-SCF STATES FOR BLOCK  1 MULT= 1 NROOTS=15
---------------------------------------------

ROOT   0:  E=  -18787.3472541849 Eh
      0.83432 [    12]: 22202
      0.05564 [     5]: 20222
      0.05564 [     9]: 22022
      0.04417 [     0]: 02222
      0.01022 [    14]: 22220
ROOT   1:  E=  -18787.3456058685 Eh  0.045 eV    361.8 cm**-1
      0.85285 [     3]: 12212
      0.07357 [     9]: 22022
      0.07357 [     5]: 20222
ROOT   2:  E=  -18787.3382025145 Eh  0.246 eV   1986.6 cm**-1
      0.74708 [     7]: 21212
      0.24249 [    11]: 22121
      0.01041 [     1]: 11222
ROOT   3:  E=  -18787.3382025143 Eh  0.246 eV   1986.6 cm**-1
      0.74708 [    10]: 22112
      0.24249 [     8]: 21221
      0.01041 [     2]: 12122
ROOT   4:  E=  -18787.3352307034 Eh  0.327 eV   2638.8 cm**-1
      0.75022 [     4]: 12221
      0.24978 [     6]: 21122
ROOT   5:  E=  -18787.3307893208 Eh  0.448 eV   3613.6 cm**-1
      1.00000 [    13]: 22211
ROOT   6:  E=  -18787.3225377409 Eh  0.673 eV   5424.6 cm**-1
      0.82335 [    14]: 22220
      0.06102 [    12]: 22202
      0.04395 [     5]: 20222
      0.04395 [     9]: 22022
      0.02774 [     0]: 02222
ROOT   7:  E=  -18787.3111018227 Eh  0.984 eV   7934.5 cm**-1
      0.51076 [     8]: 21221
      0.23475 [    11]: 22121
      0.17122 [    10]: 22112
      0.07869 [     7]: 21212
      0.00314 [     2]: 12122
ROOT   8:  E=  -18787.3111018226 Eh  0.984 eV   7934.5 cm**-1
      0.51076 [    11]: 22121
      0.23475 [     8]: 21221
      0.17122 [     7]: 21212
      0.07869 [    10]: 22112
      0.00314 [     1]: 11222
ROOT   9:  E=  -18787.2999618736 Eh  1.287 eV  10379.5 cm**-1
      0.42643 [     9]: 22022
      0.42643 [     5]: 20222
      0.14715 [     3]: 12212
ROOT  10:  E=  -18787.2971703153 Eh  1.363 eV  10992.1 cm**-1
      0.75022 [     6]: 21122
      0.24978 [     4]: 12221
ROOT  11:  E=  -18787.2919940797 Eh  1.504 eV  12128.2 cm**-1
      0.62076 [     1]: 11222
      0.36425 [     2]: 12122
      0.00756 [    11]: 22121
      0.00443 [     8]: 21221
ROOT  12:  E=  -18787.2919940797 Eh  1.504 eV  12128.2 cm**-1
      0.62076 [     2]: 12122
      0.36425 [     1]: 11222
      0.00756 [     8]: 21221
      0.00443 [    11]: 22121
ROOT  13:  E=  -18787.2903383094 Eh  1.549 eV  12491.6 cm**-1
      0.66352 [     0]: 02222
      0.16707 [     5]: 20222
      0.16707 [     9]: 22022
ROOT  14:  E=  -18787.1887040445 Eh  4.314 eV  34797.7 cm**-1
      0.26457 [     0]: 02222
      0.23333 [     9]: 22022
      0.23333 [     5]: 20222
      0.16446 [    14]: 22220
      0.10431 [    12]: 22202


-----------------------------
SA-CASSCF TRANSITION ENERGIES
------------------------------

LOWEST ROOT (ROOT 0 ,MULT 3) = -18787.392489407 Eh -511230.940 eV

STATE   ROOT MULT  DE/a.u.    DE/eV    DE/cm**-1
   1:    1    3   0.000000     0.000      0.0
[...]

------------------------------
AILFT MATRIX ELEMENTS (NEVPT2)
--------------------------------

Ligand field one-electron matrix VLFT (a.u.) : 
Orbital          dz2        dxz        dyz        dx2-y2     dxy
  dz2         -4.289490  -0.000000  -0.000000   0.000000  -0.000000 
  dxz         -0.000000  -4.285204  -0.000000  -0.000000  -0.000000 
  dyz         -0.000000  -0.000000  -4.285204   0.000000  -0.000000 
  dx2-y2       0.000000  -0.000000   0.000000  -4.255099  -0.000000 
  dxy         -0.000000  -0.000000  -0.000000  -0.000000  -4.274604 

-------------------------------------------------
Slater-Condon Parameters (electronic repulsion) : 
-------------------------------------------------
F2dd                    =  0.269340430 a.u. =     7.329 eV =   59113.4 cm**-1
F4dd                    =  0.172742392 a.u. =     4.701 eV =   37912.6 cm**-1
-------------------
Racah Parameters : 
-------------------
B                       =  0.003538213 a.u. =     0.096 eV =     776.5 cm**-1
C                       =  0.013709714 a.u. =     0.373 eV =    3008.9 cm**-1
C/B                     =  3.875
-------------------------------------------------------------------------------

-----------------------------------------
The ligand field one electron eigenfunctions:
-----------------------------------------
Orbital    Energy (eV)  Energy(cm-1)      dz2        dxz        dyz        dx2-y2     dxy
    1          0.000        0.0        -1.000000  -0.000000  -0.000000   0.000000  -0.000000 
    2          0.117      940.7         0.000000  -0.240485  -0.970653   0.000000  -0.000000 
    3          0.117      940.7        -0.000000   0.970653  -0.240485   0.000000   0.000000 
    4          0.405     3267.3        -0.000000  -0.000000  -0.000000   0.000000   1.000000 
    5          0.936     7548.0        -0.000000   0.000000  -0.000000  -1.000000   0.000000 
Ligand field orbitals were stored in run_D4h_Pt.nevpt2.lft.gbw

Calculating ligand field Hamiltonian matrices          ... done
Diagonalizing and fitting the ligand field Hamiltonian ... done
Calculating statistical parameters                     ... done

Reference energy AI-LFT =    -18.631129593 au
Reference energy AI     =    -18.630526868 au

------------------------------------------------
COMPARISON OF AB INITIO AND LIGAND FIELD RESULTS
------------------------------------------------

Block   1
---------
   AI-Root   0: E(AI)=    0.000 eV -> LF-Root   0:     0.011 eV    S= 1.000 Delta=   -0.011 eV
   AI-Root   1: E(AI)=    0.018 eV -> LF-Root   1:     0.000 eV    S= 0.971 Delta=    0.018 eV
   AI-Root   2: E(AI)=    0.018 eV -> LF-Root   2:     0.000 eV    S= 0.971 Delta=    0.018 eV
   AI-Root   3: E(AI)=    0.326 eV -> LF-Root   3:     0.291 eV    S= 0.995 Delta=    0.035 eV
   AI-Root   4: E(AI)=    0.581 eV -> LF-Root   4:     0.513 eV    S= 0.716 Delta=    0.068 eV
   AI-Root   5: E(AI)=    0.581 eV -> LF-Root   5:     0.513 eV    S= 0.716 Delta=    0.068 eV
   AI-Root   6: E(AI)=    0.595 eV -> LF-Root   6:     0.541 eV    S= 1.000 Delta=    0.053 eV
   AI-Root   7: E(AI)=    1.322 eV -> LF-Root   7:     1.472 eV    S= 0.995 Delta=   -0.150 eV
   AI-Root   8: E(AI)=    1.947 eV -> LF-Root   8:     2.080 eV    S= 0.996 Delta=   -0.133 eV
   AI-Root   9: E(AI)=    1.947 eV -> LF-Root   9:     2.080 eV    S= 0.996 Delta=   -0.133 eV
   RMS error for this block =     0.085 eV =     683.4 cm**-1 

Block   2
---------
   AI-Root   0: E(AI)=    0.772 eV -> LF-Root   0:     0.895 eV    S= 0.997 Delta=   -0.123 eV
   AI-Root   1: E(AI)=    1.108 eV -> LF-Root   1:     1.406 eV    S= 0.999 Delta=   -0.298 eV
   AI-Root   2: E(AI)=    1.307 eV -> LF-Root   2:     1.342 eV    S= 0.993 Delta=   -0.035 eV
   AI-Root   3: E(AI)=    1.307 eV -> LF-Root   3:     1.342 eV    S= 0.993 Delta=   -0.035 eV
   AI-Root   4: E(AI)=    1.440 eV -> LF-Root   4:     1.507 eV    S= 1.000 Delta=   -0.067 eV
   AI-Root   5: E(AI)=    1.637 eV -> LF-Root   5:     1.832 eV    S= 0.997 Delta=   -0.195 eV
   AI-Root   6: E(AI)=    1.915 eV -> LF-Root   6:     1.837 eV    S= 0.995 Delta=    0.078 eV
   AI-Root   7: E(AI)=    2.182 eV -> LF-Root   7:     2.151 eV    S= 0.969 Delta=    0.031 eV
   AI-Root   8: E(AI)=    2.182 eV -> LF-Root   8:     2.151 eV    S= 0.969 Delta=    0.031 eV
   AI-Root   9: E(AI)=    2.511 eV -> LF-Root   9:     2.447 eV    S= 0.999 Delta=    0.065 eV
   AI-Root  10: E(AI)=    2.632 eV -> LF-Root  10:     2.551 eV    S= 0.997 Delta=    0.081 eV
   AI-Root  11: E(AI)=    2.777 eV -> LF-Root  11:     2.686 eV    S= 0.992 Delta=    0.091 eV
   AI-Root  12: E(AI)=    2.777 eV -> LF-Root  12:     2.686 eV    S= 0.992 Delta=    0.091 eV
   AI-Root  13: E(AI)=    2.819 eV -> LF-Root  13:     2.741 eV    S= 0.994 Delta=    0.078 eV
   AI-Root  14: E(AI)=    5.120 eV -> LF-Root  14:     5.158 eV    S= 1.000 Delta=   -0.038 eV
   RMS error for this block =     0.113 eV =     912.2 cm**-1 

Total RMS error g=     0.105 eV =     845.4 cm**-1
Note: Dropped RMS error for the reference energy.

Confidence intervals (95%) computed from the square root of the
diagonal elements of the covariance matrix:
H(dz2   ,dz2   )=  0.001406420 a.u. =     0.038 eV =     308.7 cm**-1
H(dxz   ,dz2   )=  0.001058643 a.u. =     0.029 eV =     232.3 cm**-1
H(dxz   ,dxz   )=  0.001406420 a.u. =     0.038 eV =     308.7 cm**-1
H(dyz   ,dz2   )=  0.001058643 a.u. =     0.029 eV =     232.3 cm**-1
H(dyz   ,dxz   )=  0.001058643 a.u. =     0.029 eV =     232.3 cm**-1
H(dyz   ,dyz   )=  0.001406420 a.u. =     0.038 eV =     308.7 cm**-1
H(dx2-y2,dz2   )=  0.001058643 a.u. =     0.029 eV =     232.3 cm**-1
H(dx2-y2,dxz   )=  0.001058643 a.u. =     0.029 eV =     232.3 cm**-1
H(dx2-y2,dyz   )=  0.001058643 a.u. =     0.029 eV =     232.3 cm**-1
H(dx2-y2,dx2-y2)=  0.001406420 a.u. =     0.038 eV =     308.7 cm**-1
H(dxy   ,dz2   )=  0.001058643 a.u. =     0.029 eV =     232.3 cm**-1
H(dxy   ,dxz   )=  0.001058643 a.u. =     0.029 eV =     232.3 cm**-1
H(dxy   ,dyz   )=  0.001058643 a.u. =     0.029 eV =     232.3 cm**-1
H(dxy   ,dx2-y2)=  0.001058643 a.u. =     0.029 eV =     232.3 cm**-1
H(dxy   ,dxy   )=  0.001406420 a.u. =     0.038 eV =     308.7 cm**-1
F2dd            =  0.006317750 a.u. =     0.172 eV =    1386.6 cm**-1
F4dd            =  0.008164277 a.u. =     0.222 eV =    1791.9 cm**-1
Pearson's correlation coefficient =    1.000 (should be close to 1)

----------------------------------------------
SPIN ORBIT COUPLING (based on CASSCF orbitals)
----------------------------------------------

AI-SOC-X integrals (cm-1)
                  0          1          2          3          4    
      0      -0.000000  -0.000066 7677.276829  -0.000019   0.000009
      1       0.000066   0.000000  -0.000001   0.000027 4516.517744
      2     -7677.276829   0.000001   0.000000 -4476.810854   0.000048
      3       0.000019  -0.000027 4476.810854  -0.000000   0.000000
      4      -0.000009 -4516.517744  -0.000048  -0.000000   0.000000
AI-SOC-Y integrals (cm-1)
                  0          1          2          3          4    
      0      -0.000000 -7677.276825  -0.000064  -0.000012  -0.000015
      1     7677.276825   0.000000  -0.000001 -4476.810857   0.000047
      2       0.000064   0.000001  -0.000000  -0.000027 -4516.517745
      3       0.000012 4476.810857   0.000027   0.000000   0.000001
      4       0.000015  -0.000047 4516.517745  -0.000001  -0.000000
AI-SOC-Z integrals (cm-1)
                  0          1          2          3          4    
      0      -0.000000   0.000015  -0.000010   0.000002  -0.000003
      1      -0.000015   0.000000 -4488.658774   0.000001   0.000004
      2       0.000010 4488.658774  -0.000000   0.000000  -0.000004
      3      -0.000002  -0.000001  -0.000000  -0.000000 -9008.453422
      4       0.000003  -0.000004   0.000004 9008.453422  -0.000000

Fit to the SOC matrix elements
a = 15.000000
b =     8.318 eV =   67087.1 cm**-1
SOC constant zeta =     0.555 eV =    4472.5 cm**-1


LF-SOC-X integrals (cm-1)
                  0          1          2          3          4    
      0       0.000000  -0.000000 7746.549880  -0.000000  -0.000000
      1       0.000000   0.000000  -0.000000  -0.000000 4472.472658
      2     -7746.549880   0.000000   0.000000 -4472.472658  -0.000000
      3       0.000000   0.000000 4472.472658   0.000000  -0.000000
      4       0.000000 -4472.472658   0.000000   0.000000   0.000000
LF-SOC-Y integrals (cm-1)
                  0          1          2          3          4    
      0       0.000000 -7746.549880  -0.000000  -0.000000  -0.000000
      1     7746.549880   0.000000  -0.000000 -4472.472658  -0.000000
      2       0.000000   0.000000   0.000000  -0.000000 -4472.472658
      3       0.000000 4472.472658   0.000000   0.000000  -0.000000
      4       0.000000   0.000000 4472.472658   0.000000   0.000000
LF-SOC-Z integrals (cm-1)
                  0          1          2          3          4    
      0       0.000000  -0.000000  -0.000000  -0.000000  -0.000000
      1       0.000000   0.000000 -4472.472658  -0.000000  -0.000000
      2       0.000000 4472.472658   0.000000  -0.000000  -0.000000
      3       0.000000   0.000000   0.000000   0.000000 -8944.945317
      4       0.000000   0.000000   0.000000 8944.945317   0.000000

RMS error of nonzero matrix elements =   47.2 cm**-1


-----SOC-CONSTANTS-----
---All Values in cm-1---
ZETA_D = 4472.47 
------------------------




---AILFT COMPLETED SUCCESFULLY!---
-------------------------------------------------------------------------------
                     ORCA-AILFT TERMINATED SUCCESFULLY
-------------------------------------------------------------------------------


--------------
CASSCF TIMINGS
--------------

Total time                       ...        1.8 sec
Sum of individual times          ...        1.7 sec ( 98.0%)

Calculation of AO operators
Calculation of MO transformed quantities
Configuration interaction steps
   CI-setup phase                ...        0.7 sec ( 39.0%)
Orbital improvement steps
Properties                       ...        1.0 sec ( 58.9%)
   SOC integral calculation      ...        0.0 sec (  0.0%)
   SSC RMEs (incl. integrals)    ...        0.0 sec (  0.0%)
   SOC RMEs                      ...        0.0 sec (  0.2%)

Maximum memory used throughout the entire CASSCF-calculation: 73.5 MB

-------------------------   --------------------
FINAL SINGLE POINT ENERGY    -18789.070501110538
-------------------------   --------------------


------------------------------------------------------------------------------
                              ORCA PROPERTY CALCULATIONS
------------------------------------------------------------------------------

GBWName                                 ... run_D4h_Pt.gbw
Number of atoms                         ...      5
Number of basis functions               ...    239
Max core memory                         ...  14000 MB

Electric properties:
Dipole moment                           ... YES(DKH)
Quadrupole moment                       ...  NO
Static polarizability (Dipole/Dipole)   ...  NO
Static polarizability (Dipole/Quad.)    ...  NO
Static polarizability (Quad./Quad.)     ...  NO
Static polarizability (Velocity)        ...  NO

Atomic electric properties:
Dipole moment                           ...  NO
Quadrupole moment                       ...  NO
Static polarizability                   ...  NO

Choice of electric origin               ... Center of mass
Position of electric origin             ...     0.000000     0.000000     0.000000

General magnetic properties:
Magnetizability                         ...  NO

EPR properties:
g-Tensor (aka g-matrix)                 ...  NO
Zero-Field splitting spin-orbit         ...  NO
Zero-field splitting spin-spin          ...  NO
Hyperfine couplings                     ...  NO (   0 nuclei)
Quadrupole couplings                    ...  NO (   0 nuclei)
Contact density                         ...  NO (   0 nuclei)

NMR properties:
Chemical shifts                         ...  NO (   0 nuclei)
Spin-rotation constants                 ...  NO (   0 nuclei)
Spin-spin couplings                     ...  NO (   0 nuclei,    0 pairs)

Choice of magnetic origin               ... GIAO
Position of magnetic origin             ...     0.000000     0.000000     0.000000

Properties with geometric perturbations:
SCF Hessian                             ...  NO
IR spectrum                             ...  NO
VCD spectrum                            ...  NO
X-ray spectroscopy properties:
SCF XES/XAS/RIXS spectra                ...  NO

DKH transformation order                ... Second
Note: picture-change corrections are only included
      for the properties annotated with "YES(DKH)"!


-------------
DIPOLE MOMENT
-------------

Method             : CASSCF
Type of density    : Electron Density
Level              : Unrelaxed density
State              :  -1
Multiplicity       :  -1
Irrep              :   0
Energy             : -18787.3385703205931350 Eh
Relativity type    : 
Basis              : AO
                                X                 Y                 Z
Electronic contribution:      0.000000154      -0.000000325      -0.000000000
Nuclear contribution   :      0.000000000       0.000000000       0.000000000
                        -----------------------------------------
Total Dipole Moment    :      0.000000154      -0.000000325      -0.000000000
                        -----------------------------------------
Magnitude (a.u.)       :      0.000000359
Magnitude (Debye)      :      0.000000913



--------------------
Rotational spectrum 
--------------------
 
Rotational constants in cm-1:             0.049297             0.049297             0.024648 
Rotational constants in MHz :          1477.873342          1477.873342           738.936671 

Dipole components along the rotational axes: 
x,y,z [a.u.] :     0.000000    -0.000000    -0.000000 
x,y,z [Debye]:     0.000000    -0.000001    -0.000000 

 

Dipole moment calculation done in   0.0 sec 

Maximum memory used throughout the entire PROP-calculation: 40.6 MB

--------------------------------
SUGGESTED CITATIONS FOR THIS RUN
--------------------------------

Below you find a list of papers that are relevant to this ORCA run
We neither can nor want to force you to cite these papers, but we appreciate if you do
You receive ORCA, which is the product of decades of hard work by many enthusiastic individuals, for free
The only thing we kindly ask in return is that you cite our papers,
We deeply appreciate it, if you show your appreciation for ORCA by not just citing the generic ORCA reference.

Please note that relegating all ORCA citations to the supporting information does *not* help us.
SI sections are not indexed - citations you put there will not count into any citation statistics
But we need these citations in order to attract the funding resources that allow us to do what we are doing

Therefore, if you are a happy ORCA user, please consider citing a few of the papers listed below in the main body of your paper

In addition to the list printed below, the program has created the file run_D4h_Pt.bibtex that contains the list in bibtex format
You can import this file easily into all common literature databanks and citation aid programs


List of essential papers. We consider these as the minimum necessary citations

  1. Neese,F.
     Software update: the ORCA program system, version 5.0
     WIRES Comput. Molec. Sci., 2022 12(1)e1606
     doi.org/10.1002/wcms.1606

List of papers to cite with high priority. The work reported in these papers was absolutely
necessary for this run to complete.
Our perspective: the developers of density functionals and basis sets usually get cited in chemistry papers
Good! But without the algorithms to do something with them, the functionals or basis sets would not do anything.
Hence, in our opinion, the algorithm design and method developments papers are equally worthy of getting cited

  1. Ganyushin,D.; Neese,F.
     First-principles calculations of zero-field splitting parameters
     J. Chem. Phys., 2006 125(2)Art. No. 024103
     doi.org/10.1063/1.2213976
  2. Atanasov,M.; Ganyushin,D.; Sivalingam,K.; Neese,F.
     A Modern First-Principles View on Ligand Field Theory Through the Eyes of Correlated Multireference Wavefunctions
     Struct. Bond., 2012 142 149-220
     doi.org/10.1007/430_2011_57
  3. Stoychev,G.L.; Auer,A.A.; Neese,F.
     Automatic Generation of Auxiliary Basis Sets
     J. Theo. Comp. Chem., 2017 13 554-562
     doi.org/10.1021/acs.jctc.6b01041
  4. Kollmar,C.; Sivalingam,K.; Helmich-Paris,B.; Angeli,C.; Neese,F.
     A perturbation-based super-CI approach for the orbital optimization of a CASSCF wave function
     J. Comput. Chem., 2019 40 1463-1470
     doi.org/10.1002/jcc.25801
  5. Lang,L.; Neese,F.
     Spin-dependent properties in the framework of the dynamic correlation dressed complete active space method
     J. Chem. Phys., 2019 150 
     doi.org/10.1063/1.5085203
  6. Kollmar,C.; Sivalingam,K.; Neese,F.
     An efficient implementation of the NEVPT2 and CASPT2 methods avoiding higher-order density matrices
     J. Chem. Phys., 2021 155 234104
     doi.org/10.1063/5.0072129
  7. Guo,Y.; Sivalingam,K.; Neese,F.
     Approximations of density matrices in N-electron valence state second-order perturbation theory (NEVPT2). I. Revisiting the NEVPT2 construction
     J. Chem. Phys., 2021 154 214111
  8. Neese,F.
     The SHARK Integral Generation and Digestion System
     J. Comp. Chem., 2022  1-16
     doi.org/10.1002/jcc.26942
  9. Ugandi,M.; Roemelt,M.
     A recursive formulation of one-electron coupling coefficients for spin-adapted configuration interaction calculations featuring many unpaired electrons
     Int. J. Quantum Chem., 2023 123 e27045
     doi.org/10.1002/qua.27045

List of suggested additional citations. These are papers that are important in the 'surrounding' of 
of this run, or papers that preceded the highly important papers. If you like your results we are grateful for a citation.

  1. Neese,F.
     The ORCA program system
     WIRES Comput. Molec. Sci., 2012 2(1)73-78
     doi.org/10.1002/wcms.81
  2. Schapiro,I.; Sivalingam,K.; Neese,F.
     Assessment of n-Electron Valence State Perturbation Theory for Vertical Excitation Energies
     J. Theo. Comp. Chem., 2013 9 3567-3580
     doi.org/10.1021/ct400136y
  3. Neese,F.
     Software update: the ORCA program system, version 4.0
     WIRES Comput. Molec. Sci., 2018 8(1)1-6
     doi.org/10.1002/wcms.1327
  4. Neese,F.; Wennmohs,F.; Becker,U.; Riplinger,C.
     The ORCA quantum chemistry program package
     J. Chem. Phys., 2020 152 Art. No. L224108
     doi.org/10.1063/5.0004608
  5. Guo,Y.; Sivalingam,K.; Kollmar,C.; Neese,F.
     Approximations of density matrices in N-electron valence state second-order perturbation theory (NEVPT2). II. The full rank NEVPT2 (FR-NEVPT2) formulation
     J. Chem. Phys., 2021 154 214113

List of optional additional citations

  1. Neese,F.
     Approximate second-order SCF convergence for spin unrestricted wavefunctions
     Chem. Phys. Lett., 2000 325(1-3)93-98
     doi.org/10.1016/s0009-2614(00)00662-x

Timings for individual modules:

Sum of individual times          ...      416.228 sec (=   6.937 min)
Startup calculation              ...        0.829 sec (=   0.014 min)   0.2 %
Relativistic integrals           ...        0.316 sec (=   0.005 min)   0.1 %
SCF iterations                   ...        0.283 sec (=   0.005 min)   0.1 %
CASSCF iterations                ...      338.306 sec (=   5.638 min)  81.3 %
Property integrals               ...       76.095 sec (=   1.268 min)  18.3 %
Property calculations            ...        0.399 sec (=   0.007 min)   0.1 %
                             ****ORCA TERMINATED NORMALLY****
TOTAL RUN TIME: 0 days 0 hours 6 minutes 56 seconds 371 msec
